       N       E                     dE             d eps       ncg     rms          rms(c)
DAV:   1     0.127297136432E+05    0.12730E+05   -0.82434E+05  4408   0.143E+03
DAV:   2    -0.105053316437E+04   -0.13780E+05   -0.13196E+05  5288   0.330E+02
DAV:   3    -0.246195004702E+04   -0.14114E+04   -0.13984E+04  5336   0.111E+02
DAV:   4    -0.250739591465E+04   -0.45446E+02   -0.45227E+02  6600   0.296E+01
DAV:   5    -0.250829796958E+04   -0.90205E+00   -0.90059E+00  5512   0.331E+00    0.170E+02
RMM:   6    -0.146976020563E+04    0.10385E+04   -0.19226E+03  4372   0.386E+01    0.723E+01
RMM:   7    -0.164271948312E+04   -0.17296E+03   -0.28229E+02  4925   0.142E+01    0.489E+01
RMM:   8    -0.169846040085E+04   -0.55741E+02   -0.49747E+01  5166   0.718E+00    0.396E+01
RMM:   9    -0.179124150897E+04   -0.92781E+02   -0.61033E+01  5009   0.739E+00    0.323E+01
RMM:  10    -0.192520949709E+04   -0.13397E+03   -0.57590E+01  5228   0.721E+00    0.201E+01
RMM:  11    -0.202771378109E+04   -0.10250E+03   -0.43046E+01  4887   0.523E+00    0.144E+01
RMM:  12    -0.215832189749E+04   -0.13061E+03   -0.88800E+01  4377   0.697E+00    0.100E+01
RMM:  13    -0.227260706431E+04   -0.11429E+03   -0.11659E+02  4388   0.725E+00    0.594E+00
RMM:  14    -0.229073136497E+04   -0.18124E+02   -0.21390E+01  4429   0.446E+00    0.511E+00
RMM:  15    -0.229428622035E+04   -0.35549E+01   -0.79411E+00  4988   0.152E+00    0.486E+00
RMM:  16    -0.229599661053E+04   -0.17104E+01   -0.14527E+00  4759   0.100E+00    0.344E+00
RMM:  17    -0.229938110248E+04   -0.33845E+01   -0.23977E+00  4415   0.101E+00    0.211E+00
RMM:  18    -0.230075090660E+04   -0.13698E+01   -0.72951E-01  4570   0.686E-01    0.139E+00
RMM:  19    -0.230123822682E+04   -0.48732E+00   -0.36069E-01  4590   0.319E-01    0.869E-01
RMM:  20    -0.230147748098E+04   -0.23925E+00   -0.16071E-01  4500   0.247E-01    0.453E-01
RMM:  21    -0.230156508676E+04   -0.87606E-01   -0.66392E-02  4658   0.149E-01    0.228E-01
RMM:  22    -0.230160105544E+04   -0.35969E-01   -0.18096E-02  4489   0.977E-02    0.166E-01
RMM:  23    -0.230162336564E+04   -0.22310E-01   -0.84951E-03  4441   0.682E-02    0.155E-01
RMM:  24    -0.230163109716E+04   -0.77315E-02   -0.25620E-03  4702   0.460E-02    0.775E-02
RMM:  25    -0.230163817052E+04   -0.70734E-02   -0.17990E-03  4404   0.281E-02    0.440E-02
RMM:  26    -0.230164306271E+04   -0.48922E-02   -0.13619E-03  4434   0.294E-02    0.226E-02
RMM:  27    -0.230164444773E+04   -0.13850E-02   -0.51455E-04  4359   0.186E-02    0.124E-02
RMM:  28    -0.230164489577E+04   -0.44804E-03   -0.11858E-04  3742   0.806E-03    0.742E-03
RMM:  29    -0.230164517019E+04   -0.27442E-03   -0.64149E-05  3473   0.624E-03    0.403E-03
RMM:  30    -0.230164523492E+04   -0.64728E-04   -0.17184E-05  2942   0.449E-03    0.319E-03
RMM:  31    -0.230164526548E+04   -0.30560E-04   -0.98848E-06  2833   0.311E-03    0.136E-03
RMM:  32    -0.230164527295E+04   -0.74666E-05   -0.40886E-06  2665   0.264E-03
   1 F= -.23220023E+04 E0= -.23220023E+04  d E =-.232200E+04  mag=     2.0001
       N       E                     dE             d eps       ncg     rms          rms(c)
DAV:   1    -0.230157248036E+04    0.72785E-01   -0.69856E+00  5056   0.182E+00    0.915E-01
RMM:   2    -0.230174838427E+04   -0.17590E+00   -0.16820E+00  6360   0.522E-01    0.155E+00
RMM:   3    -0.230174309868E+04    0.52856E-02   -0.19236E-01  5750   0.215E-01    0.618E-01
RMM:   4    -0.230174087493E+04    0.22237E-02   -0.18080E-02  4976   0.421E-02    0.321E-01
RMM:   5    -0.230173949052E+04    0.13844E-02   -0.36485E-03  5298   0.235E-02    0.149E-01
RMM:   6    -0.230173928493E+04    0.20559E-03   -0.10069E-03  4520   0.170E-02    0.492E-02
RMM:   7    -0.230173927925E+04    0.56730E-05   -0.12104E-04  3060   0.617E-03    0.188E-02
RMM:   8    -0.230173927917E+04    0.88068E-07   -0.22792E-05  2898   0.401E-03
   2 F= -.23220935E+04 E0= -.23220935E+04  d E =-.912424E-01  mag=     2.0000
       N       E                     dE             d eps       ncg     rms          rms(c)
DAV:   1    -0.230170108929E+04    0.38190E-01   -0.21871E+00  4720   0.983E-01    0.514E-01
RMM:   2    -0.230175631325E+04   -0.55224E-01   -0.52114E-01  6315   0.287E-01    0.918E-01
RMM:   3    -0.230175386528E+04    0.24480E-02   -0.63670E-02  5355   0.119E-01    0.327E-01
RMM:   4    -0.230175324317E+04    0.62211E-03   -0.58376E-03  4333   0.238E-02    0.182E-01
RMM:   5    -0.230175280644E+04    0.43673E-03   -0.10094E-03  4633   0.128E-02    0.876E-02
RMM:   6    -0.230175272929E+04    0.77148E-04   -0.36975E-04  3802   0.107E-02    0.298E-02
RMM:   7    -0.230175272719E+04    0.21075E-05   -0.43001E-05  2881   0.474E-03
   3 F= -.23221055E+04 E0= -.23221055E+04  d E =-.103171E+00  mag=     2.0000
       N       E                     dE             d eps       ncg     rms          rms(c)
DAV:   1    -0.230174224547E+04    0.10484E-01   -0.22133E+00  4544   0.121E+00    0.447E-01
RMM:   2    -0.230177604936E+04   -0.33804E-01   -0.35210E-01  5980   0.273E-01    0.504E-01
RMM:   3    -0.230177848093E+04   -0.24316E-02   -0.37667E-02  5573   0.944E-02    0.466E-01
RMM:   4    -0.230177666632E+04    0.18146E-02   -0.40671E-03  5167   0.245E-02    0.129E-01
RMM:   5    -0.230177636572E+04    0.30060E-03   -0.77910E-04  4766   0.154E-02    0.606E-02
RMM:   6    -0.230177634447E+04    0.21251E-04   -0.23207E-04  4288   0.113E-02    0.252E-02
RMM:   7    -0.230177634256E+04    0.19163E-05   -0.30259E-05  3000   0.600E-03
   4 F= -.23221289E+04 E0= -.23221289E+04  d E =-.234015E-01  mag=     2.0000
       N       E                     dE             d eps       ncg     rms          rms(c)
DAV:   1    -0.230173443150E+04    0.41913E-01   -0.33803E+00  4496   0.151E+00    0.552E-01
RMM:   2    -0.230178629360E+04   -0.51862E-01   -0.53991E-01  5966   0.341E-01    0.635E-01
RMM:   3    -0.230179010042E+04   -0.38068E-02   -0.58030E-02  5615   0.118E-01    0.590E-01
RMM:   4    -0.230178731057E+04    0.27899E-02   -0.62774E-03  5458   0.305E-02    0.160E-01
RMM:   5    -0.230178684311E+04    0.46746E-03   -0.11784E-03  5013   0.188E-02    0.755E-02
RMM:   6    -0.230178680808E+04    0.35030E-04   -0.35603E-04  4549   0.135E-02    0.354E-02
RMM:   7    -0.230178680144E+04    0.66425E-05   -0.52716E-05  3295   0.680E-03
   5 F= -.23221391E+04 E0= -.23221391E+04  d E =-.336029E-01  mag=     2.0000
       N       E                     dE             d eps       ncg     rms          rms(c)
DAV:   1    -0.230178103023E+04    0.57778E-02   -0.15271E+00  4496   0.113E+00    0.424E-01
RMM:   2    -0.230180813546E+04   -0.27105E-01   -0.23013E-01  5922   0.253E-01    0.930E-01
RMM:   3    -0.230180189705E+04    0.62384E-02   -0.17469E-02  5412   0.811E-02    0.200E-01
RMM:   4    -0.230180144194E+04    0.45511E-03   -0.24767E-03  4666   0.210E-02    0.999E-02
RMM:   5    -0.230180124395E+04    0.19799E-03   -0.58084E-04  5171   0.171E-02    0.727E-02
RMM:   6    -0.230180119821E+04    0.45744E-04   -0.18099E-04  4590   0.102E-02    0.159E-02
RMM:   7    -0.230180119522E+04    0.29887E-05   -0.32137E-05  2915   0.503E-03
   6 F= -.23221534E+04 E0= -.23221534E+04  d E =-.143392E-01  mag=     2.0000
       N       E                     dE             d eps       ncg     rms          rms(c)
DAV:   1    -0.230179164518E+04    0.95530E-02   -0.98874E-01  4496   0.910E-01    0.341E-01
RMM:   2    -0.230180928512E+04   -0.17640E-01   -0.14899E-01  5909   0.204E-01    0.759E-01
RMM:   3    -0.230180513301E+04    0.41521E-02   -0.11381E-02  5325   0.652E-02    0.158E-01
RMM:   4    -0.230180483722E+04    0.29580E-03   -0.16134E-03  4508   0.170E-02    0.815E-02
RMM:   5    -0.230180468792E+04    0.14930E-03   -0.38928E-04  4873   0.142E-02    0.605E-02
RMM:   6    -0.230180464642E+04    0.41496E-04   -0.12871E-04  4253   0.902E-03    0.133E-02
RMM:   7    -0.230180464035E+04    0.60736E-05   -0.24716E-05  2896   0.483E-03
   7 F= -.23221568E+04 E0= -.23221568E+04  d E =-.177410E-01  mag=     2.0000
       N       E                     dE             d eps       ncg     rms          rms(c)
DAV:   1    -0.230180182978E+04    0.28166E-02   -0.49506E-01  4576   0.625E-01    0.248E-01
RMM:   2    -0.230181428989E+04   -0.12460E-01   -0.93967E-02  6254   0.154E-01    0.706E-01
RMM:   3    -0.230181041520E+04    0.38747E-02   -0.80488E-03  5383   0.452E-02    0.819E-02
RMM:   4    -0.230181040724E+04    0.79639E-05   -0.10333E-03  3510   0.113E-02    0.542E-02
RMM:   5    -0.230181039383E+04    0.13412E-04   -0.93295E-05  3378   0.746E-03    0.653E-02
RMM:   6    -0.230181036422E+04    0.29605E-04   -0.88525E-05  3204   0.752E-03    0.995E-03
RMM:   7    -0.230181036503E+04   -0.80856E-06   -0.15385E-05  2840   0.421E-03
   8 F= -.23221625E+04 E0= -.23221625E+04  d E =-.566977E-02  mag=     2.0000
       N       E                     dE             d eps       ncg     rms          rms(c)
DAV:   1    -0.230174340809E+04    0.66956E-01   -0.44610E+00  4448   0.188E+00    0.752E-01
RMM:   2    -0.230185696410E+04   -0.11356E+00   -0.84770E-01  6248   0.461E-01    0.211E+00
RMM:   3    -0.230182012309E+04    0.36841E-01   -0.74371E-02  5952   0.138E-01    0.246E-01
RMM:   4    -0.230182003062E+04    0.92471E-04   -0.11292E-02  4876   0.336E-02    0.160E-01
RMM:   5    -0.230181995287E+04    0.77752E-04   -0.84538E-04  5002   0.196E-02    0.208E-01
RMM:   6    -0.230181961177E+04    0.34110E-03   -0.88471E-04  5031   0.185E-02    0.335E-02
RMM:   7    -0.230181961316E+04   -0.13956E-05   -0.14579E-04  3124   0.848E-03    0.324E-02
RMM:   8    -0.230181960542E+04    0.77477E-05   -0.23073E-05  2831   0.408E-03
   9 F= -.23221716E+04 E0= -.23221716E+04  d E =-.147620E-01  mag=     2.0000
       N       E                     dE             d eps       ncg     rms          rms(c)
DAV:   1    -0.230181619984E+04    0.34133E-02   -0.64678E-01  4528   0.763E-01    0.263E-01
RMM:   2    -0.230182671829E+04   -0.10518E-01   -0.10234E-01  6059   0.176E-01    0.383E-01
RMM:   3    -0.230182645751E+04    0.26078E-03   -0.92969E-03  5538   0.522E-02    0.225E-01
RMM:   4    -0.230182598116E+04    0.47635E-03   -0.98873E-04  4633   0.148E-02    0.593E-02
RMM:   5    -0.230182593011E+04    0.51053E-04   -0.18779E-04  3998   0.941E-03    0.403E-02
RMM:   6    -0.230182591937E+04    0.10734E-04   -0.63946E-05  3296   0.801E-03    0.170E-02
RMM:   7    -0.230182591725E+04    0.21260E-05   -0.15513E-05  2846   0.509E-03
  10 F= -.23221778E+04 E0= -.23221778E+04  d E =-.623990E-02  mag=     2.0000
       N       E                     dE             d eps       ncg     rms          rms(c)
DAV:   1    -0.230175881211E+04    0.67107E-01   -0.49205E+00  4460   0.210E+00    0.731E-01
RMM:   2    -0.230183985305E+04   -0.81041E-01   -0.78054E-01  6010   0.481E-01    0.109E+00
RMM:   3    -0.230183660101E+04    0.32520E-02   -0.74295E-02  5799   0.150E-01    0.579E-01
RMM:   4    -0.230183339926E+04    0.32018E-02   -0.84538E-03  5387   0.396E-02    0.161E-01
RMM:   5    -0.230183301874E+04    0.38052E-03   -0.11855E-03  5172   0.234E-02    0.121E-01
RMM:   6    -0.230183289895E+04    0.11979E-03   -0.49994E-04  4862   0.174E-02    0.501E-02
RMM:   7    -0.230183287006E+04    0.28885E-04   -0.10090E-04  3418   0.899E-03    0.193E-02
RMM:   8    -0.230183285956E+04    0.10502E-04   -0.23021E-05  2846   0.501E-03    0.724E-03
RMM:   9    -0.230183285802E+04    0.15408E-05   -0.86505E-06  2828   0.325E-03
  11 F= -.23221846E+04 E0= -.23221846E+04  d E =-.130135E-01  mag=     2.0000
       N       E                     dE             d eps       ncg     rms          rms(c)
DAV:   1    -0.230183214169E+04    0.71787E-03   -0.27493E-01  4640   0.483E-01    0.146E-01
RMM:   2    -0.230183618305E+04   -0.40414E-02   -0.41830E-02  6147   0.108E-01    0.149E-01
RMM:   3    -0.230183646991E+04   -0.28686E-03   -0.37028E-03  4553   0.295E-02    0.154E-01
RMM:   4    -0.230183625570E+04    0.21421E-03   -0.42270E-04  3320   0.931E-03    0.383E-02
RMM:   5    -0.230183623764E+04    0.18060E-04   -0.67279E-05  2999   0.535E-03    0.225E-02
RMM:   6    -0.230183623626E+04    0.13837E-05   -0.24391E-05  2901   0.470E-03
  12 F= -.23221879E+04 E0= -.23221879E+04  d E =-.327920E-02  mag=     2.0000
       N       E                     dE             d eps       ncg     rms          rms(c)
DAV:   1    -0.230180821315E+04    0.28024E-01   -0.24721E+00  4464   0.145E+00    0.440E-01
RMM:   2    -0.230184461455E+04   -0.36401E-01   -0.37537E-01  6101   0.322E-01    0.461E-01
RMM:   3    -0.230184687591E+04   -0.22614E-02   -0.32806E-02  5718   0.884E-02    0.448E-01
RMM:   4    -0.230184507457E+04    0.18013E-02   -0.37589E-03  5128   0.255E-02    0.115E-01
RMM:   5    -0.230184492547E+04    0.14910E-03   -0.56224E-04  4198   0.126E-02    0.686E-02
RMM:   6    -0.230184489834E+04    0.27133E-04   -0.22114E-04  4022   0.117E-02    0.370E-02
RMM:   7    -0.230184488983E+04    0.85114E-05   -0.40756E-05  2900   0.633E-03
  13 F= -.23221962E+04 E0= -.23221962E+04  d E =-.116547E-01  mag=     2.0000
       N       E                     dE             d eps       ncg     rms          rms(c)
DAV:   1    -0.230170739640E+04    0.13750E+00   -0.98895E+00  4424   0.289E+00    0.891E-01
RMM:   2    -0.230185238424E+04   -0.14499E+00   -0.14852E+00  6116   0.638E-01    0.979E-01
RMM:   3    -0.230186237321E+04   -0.99890E-02   -0.16136E-01  5887   0.197E-01    0.862E-01
RMM:   4    -0.230185603189E+04    0.63413E-02   -0.15660E-02  5715   0.501E-02    0.235E-01
RMM:   5    -0.230185544382E+04    0.58807E-03   -0.20426E-03  4871   0.235E-02    0.140E-01
RMM:   6    -0.230185532267E+04    0.12115E-03   -0.94040E-04  4960   0.215E-02    0.869E-02
RMM:   7    -0.230185527342E+04    0.49242E-04   -0.18731E-04  3617   0.111E-02    0.246E-02
RMM:   8    -0.230185526622E+04    0.72039E-05   -0.29012E-05  2859   0.502E-03
  14 F= -.23222062E+04 E0= -.23222062E+04  d E =-.215597E-01  mag=     2.0000
       N       E                     dE             d eps       ncg     rms          rms(c)
DAV:   1    -0.230124165266E+04    0.61362E+00   -0.39508E+01  4384   0.578E+00    0.183E+00
RMM:   2    -0.230184422815E+04   -0.60258E+00   -0.60819E+00  6106   0.125E+00    0.220E+00
RMM:   3    -0.230187404607E+04   -0.29818E-01   -0.70204E-01  5890   0.411E-01    0.164E+00
RMM:   4    -0.230185102602E+04    0.23020E-01   -0.58457E-02  5732   0.958E-02    0.470E-01
RMM:   5    -0.230184886340E+04    0.21626E-02   -0.75363E-03  5132   0.464E-02    0.291E-01
RMM:   6    -0.230184831392E+04    0.54948E-03   -0.35978E-03  5172   0.406E-02    0.189E-01
RMM:   7    -0.230184809435E+04    0.21957E-03   -0.93626E-04  4855   0.231E-02    0.531E-02
RMM:   8    -0.230184806460E+04    0.29752E-04   -0.12796E-04  3392   0.805E-03    0.228E-02
RMM:   9    -0.230184806605E+04   -0.14437E-05   -0.33024E-05  2870   0.564E-03
  15 F= -.23221983E+04 E0= -.23221983E+04  d E =-.137220E-01  mag=     2.0000
       N       E                     dE             d eps       ncg     rms          rms(c)
DAV:   1    -0.230155959453E+04    0.28847E+00   -0.19809E+01  4456   0.407E+00    0.121E+00
RMM:   2    -0.230184287674E+04   -0.28328E+00   -0.30158E+00  6170   0.935E-01    0.834E-01
RMM:   3    -0.230187436936E+04   -0.31493E-01   -0.29890E-01  5840   0.262E-01    0.133E+00
RMM:   4    -0.230185908979E+04    0.15280E-01   -0.30626E-02  6138   0.688E-02    0.362E-01
RMM:   5    -0.230185746099E+04    0.16288E-02   -0.47241E-03  5017   0.339E-02    0.214E-01
RMM:   6    -0.230185711997E+04    0.34102E-03   -0.25291E-03  4902   0.283E-02    0.127E-01
RMM:   7    -0.230185703184E+04    0.88128E-04   -0.57814E-04  4416   0.195E-02    0.440E-02
RMM:   8    -0.230185701900E+04    0.12843E-04   -0.10594E-04  3315   0.751E-03    0.265E-02
RMM:   9    -0.230185701430E+04    0.46940E-05   -0.28089E-05  2845   0.527E-03
  16 F= -.23222077E+04 E0= -.23222077E+04  d E =-.230818E-01  mag=     2.0000
       N       E                     dE             d eps       ncg     rms          rms(c)
DAV:   1    -0.230185494519E+04    0.20738E-02   -0.17413E+00  4456   0.132E+00    0.366E-01
RMM:   2    -0.230186915532E+04   -0.14210E-01   -0.15110E-01  5771   0.263E-01    0.250E-01
RMM:   3    -0.230187069031E+04   -0.15350E-02   -0.11926E-02  5512   0.801E-02    0.408E-01
RMM:   4    -0.230186915033E+04    0.15400E-02   -0.17679E-03  5347   0.234E-02    0.947E-02
RMM:   5    -0.230186901253E+04    0.13780E-03   -0.46415E-04  4626   0.161E-02    0.442E-02
RMM:   6    -0.230186900011E+04    0.12420E-04   -0.11787E-04  4005   0.111E-02    0.163E-02
RMM:   7    -0.230186899795E+04    0.21666E-05   -0.20353E-05  2891   0.462E-03
  17 F= -.23222196E+04 E0= -.23222196E+04  d E =-.119007E-01  mag=     2.0000
       N       E                     dE             d eps       ncg     rms          rms(c)
DAV:   1    -0.230183799644E+04    0.31004E-01   -0.43624E+00  4424   0.209E+00    0.580E-01
RMM:   2    -0.230187368197E+04   -0.35686E-01   -0.38027E-01  5778   0.416E-01    0.380E-01
RMM:   3    -0.230187744601E+04   -0.37640E-02   -0.29138E-02  5566   0.126E-01    0.633E-01
RMM:   4    -0.230187376154E+04    0.36845E-02   -0.44210E-03  5693   0.368E-02    0.152E-01
RMM:   5    -0.230187341313E+04    0.34841E-03   -0.11524E-03  4831   0.246E-02    0.710E-02
RMM:   6    -0.230187337719E+04    0.35933E-04   -0.28622E-04  4441   0.171E-02    0.258E-02
RMM:   7    -0.230187337111E+04    0.60866E-05   -0.49352E-05  3313   0.584E-03
  18 F= -.23222238E+04 E0= -.23222238E+04  d E =-.161441E-01  mag=     2.0000
       N       E                     dE             d eps       ncg     rms          rms(c)
DAV:   1    -0.230187155674E+04    0.18205E-02   -0.29800E-01  4560   0.549E-01    0.151E-01
RMM:   2    -0.230187393906E+04   -0.23823E-02   -0.25805E-02  5884   0.111E-01    0.810E-02
RMM:   3    -0.230187417899E+04   -0.23994E-03   -0.21849E-03  4950   0.352E-02    0.141E-01
RMM:   4    -0.230187400520E+04    0.17379E-03   -0.28728E-04  3432   0.961E-03    0.443E-02
RMM:   5    -0.230187398103E+04    0.24167E-04   -0.69243E-05  3158   0.717E-03    0.191E-02
RMM:   6    -0.230187397884E+04    0.21927E-05   -0.29959E-05  2946   0.606E-03
  19 F= -.23222245E+04 E0= -.23222245E+04  d E =-.167863E-01  mag=     2.0000
       N       E                     dE             d eps       ncg     rms          rms(c)
DAV:   1    -0.230187348918E+04    0.49185E-03   -0.11261E+00  4464   0.108E+00    0.289E-01
RMM:   2    -0.230188098763E+04   -0.74984E-02   -0.82601E-02  5732   0.204E-01    0.132E-01
RMM:   3    -0.230188146697E+04   -0.47934E-03   -0.70050E-03  5287   0.684E-02    0.186E-01
RMM:   4    -0.230188122712E+04    0.23985E-03   -0.90146E-04  4682   0.165E-02    0.100E-01
RMM:   5    -0.230188109601E+04    0.13110E-03   -0.25523E-04  4250   0.129E-02    0.325E-02
RMM:   6    -0.230188108284E+04    0.13175E-04   -0.10211E-04  3975   0.950E-03    0.117E-02
RMM:   7    -0.230188107995E+04    0.28872E-05   -0.13681E-05  2846   0.500E-03
  20 F= -.23222316E+04 E0= -.23222316E+04  d E =-.715357E-02  mag=     2.0000
       N       E                     dE             d eps       ncg     rms          rms(c)
DAV:   1    -0.230187921700E+04    0.18658E-02   -0.43436E-01  4464   0.672E-01    0.180E-01
RMM:   2    -0.230188213026E+04   -0.29133E-02   -0.32134E-02  5699   0.128E-01    0.843E-02
RMM:   3    -0.230188232618E+04   -0.19592E-03   -0.27508E-03  5047   0.408E-02    0.122E-01
RMM:   4    -0.230188221925E+04    0.10693E-03   -0.35431E-04  3656   0.105E-02    0.615E-02
RMM:   5    -0.230188216774E+04    0.51509E-04   -0.10043E-04  3684   0.857E-03    0.213E-02
RMM:   6    -0.230188216111E+04    0.66309E-05   -0.45312E-05  3249   0.695E-03
  21 F= -.23222327E+04 E0= -.23222327E+04  d E =-.826416E-02  mag=     2.0000
       N       E                     dE             d eps       ncg     rms          rms(c)
DAV:   1    -0.230188032107E+04    0.18467E-02   -0.51975E-01  4432   0.756E-01    0.216E-01
RMM:   2    -0.230188565291E+04   -0.53318E-02   -0.58686E-02  5772   0.150E-01    0.103E-01
RMM:   3    -0.230188603506E+04   -0.38215E-03   -0.51867E-03  5236   0.497E-02    0.129E-01
RMM:   4    -0.230188598311E+04    0.51949E-04   -0.62365E-04  3580   0.122E-02    0.784E-02
RMM:   5    -0.230188591867E+04    0.64441E-04   -0.14622E-04  3831   0.968E-03    0.429E-02
RMM:   6    -0.230188590230E+04    0.16370E-04   -0.59086E-05  3466   0.728E-03    0.115E-02
RMM:   7    -0.230188590169E+04    0.61485E-06   -0.13042E-05  2836   0.550E-03
  22 F= -.23222363E+04 E0= -.23222363E+04  d E =-.358051E-02  mag=     2.0000
       N       E                     dE             d eps       ncg     rms          rms(c)
DAV:   1    -0.230188043983E+04    0.54625E-02   -0.65072E-01  4416   0.846E-01    0.241E-01
RMM:   2    -0.230188712348E+04   -0.66837E-02   -0.73597E-02  5691   0.167E-01    0.112E-01
RMM:   3    -0.230188755300E+04   -0.42952E-03   -0.64497E-03  5185   0.543E-02    0.124E-01
RMM:   4    -0.230188754245E+04    0.10554E-04   -0.78009E-04  3884   0.135E-02    0.944E-02
RMM:   5    -0.230188745251E+04    0.89938E-04   -0.19004E-04  4005   0.108E-02    0.505E-02
RMM:   6    -0.230188742833E+04    0.24176E-04   -0.73731E-05  3713   0.769E-03    0.132E-02
RMM:   7    -0.230188742665E+04    0.16861E-05   -0.15837E-05  2841   0.587E-03
  23 F= -.23222377E+04 E0= -.23222377E+04  d E =-.492692E-02  mag=     2.0000
       N       E                     dE             d eps       ncg     rms          rms(c)
DAV:   1    -0.230188388288E+04    0.35455E-02   -0.52549E-01  4432   0.738E-01    0.208E-01
RMM:   2    -0.230189052238E+04   -0.66395E-02   -0.72537E-02  5834   0.150E-01    0.891E-02
RMM:   3    -0.230189094304E+04   -0.42066E-03   -0.61460E-03  5106   0.467E-02    0.628E-02
RMM:   4    -0.230189098197E+04   -0.38928E-04   -0.72287E-04  3611   0.113E-02    0.808E-02
RMM:   5    -0.230189093536E+04    0.46614E-04   -0.89778E-05  2883   0.690E-03    0.405E-02
RMM:   6    -0.230189091814E+04    0.17216E-04   -0.52498E-05  3214   0.568E-03    0.156E-02
RMM:   7    -0.230189091614E+04    0.20026E-05   -0.16474E-05  2839   0.483E-03
  24 F= -.23222409E+04 E0= -.23222409E+04  d E =-.324869E-02  mag=     2.0000
       N       E                     dE             d eps       ncg     rms          rms(c)
DAV:   1    -0.230183230814E+04    0.58610E-01   -0.47305E+00  4392   0.221E+00    0.622E-01
RMM:   2    -0.230189229884E+04   -0.59991E-01   -0.65405E-01  5793   0.448E-01    0.269E-01
RMM:   3    -0.230189553387E+04   -0.32350E-02   -0.49752E-02  5394   0.133E-01    0.165E-01
RMM:   4    -0.230189561738E+04   -0.83513E-04   -0.59020E-03  4680   0.318E-02    0.148E-01
RMM:   5    -0.230189571940E+04   -0.10202E-03   -0.82048E-04  4582   0.202E-02    0.193E-01
RMM:   6    -0.230189537937E+04    0.34003E-03   -0.38544E-04  4656   0.132E-02    0.280E-02
RMM:   7    -0.230189537703E+04    0.23344E-05   -0.62424E-05  3000   0.814E-03
  25 F= -.23222447E+04 E0= -.23222447E+04  d E =-.700383E-02  mag=     2.0000
       N       E                     dE             d eps       ncg     rms          rms(c)
DAV:   1    -0.230188901175E+04    0.63676E-02   -0.82043E-01  4416   0.930E-01    0.249E-01
RMM:   2    -0.230189834446E+04   -0.93327E-02   -0.10117E-01  5834   0.187E-01    0.150E-01
RMM:   3    -0.230189935556E+04   -0.10111E-02   -0.91424E-03  5335   0.556E-02    0.254E-01
RMM:   4    -0.230189882564E+04    0.52992E-03   -0.10799E-03  4074   0.148E-02    0.735E-02
RMM:   5    -0.230189876052E+04    0.65119E-04   -0.18944E-04  3615   0.939E-03    0.418E-02
RMM:   6    -0.230189874327E+04    0.17253E-04   -0.98729E-05  3729   0.838E-03    0.133E-02
RMM:   7    -0.230189874291E+04    0.35949E-06   -0.15787E-05  2860   0.596E-03
  26 F= -.23222478E+04 E0= -.23222478E+04  d E =-.311978E-02  mag=     2.0000
       N       E                     dE             d eps       ncg     rms          rms(c)
DAV:   1    -0.230187930416E+04    0.19439E-01   -0.18138E+00  4392   0.138E+00    0.369E-01
RMM:   2    -0.230189984490E+04   -0.20541E-01   -0.22301E-01  5838   0.278E-01    0.207E-01
RMM:   3    -0.230190183938E+04   -0.19945E-02   -0.19182E-02  5435   0.842E-02    0.342E-01
RMM:   4    -0.230190090908E+04    0.93030E-03   -0.23145E-03  5050   0.214E-02    0.111E-01
RMM:   5    -0.230190075846E+04    0.15062E-03   -0.38255E-04  4285   0.129E-02    0.612E-02
RMM:   6    -0.230190071769E+04    0.40769E-04   -0.19351E-04  4273   0.114E-02    0.173E-02
RMM:   7    -0.230190071662E+04    0.10667E-05   -0.25351E-05  2920   0.684E-03
  27 F= -.23222494E+04 E0= -.23222494E+04  d E =-.473164E-02  mag=     2.0000
       N       E                     dE             d eps       ncg     rms          rms(c)
DAV:   1    -0.230190073090E+04   -0.13210E-04   -0.29700E-01  4512   0.583E-01    0.159E-01
RMM:   2    -0.230190267371E+04   -0.19428E-02   -0.20538E-02  5722   0.110E-01    0.133E-01
RMM:   3    -0.230190289975E+04   -0.22604E-03   -0.18686E-03  4953   0.333E-02    0.191E-01
RMM:   4    -0.230190256611E+04    0.33365E-03   -0.27658E-04  4129   0.109E-02    0.385E-02
RMM:   5    -0.230190253916E+04    0.26948E-04   -0.10813E-04  3805   0.841E-03    0.176E-02
RMM:   6    -0.230190253603E+04    0.31266E-05   -0.22323E-05  2880   0.627E-03
  28 F= -.23222512E+04 E0= -.23222512E+04  d E =-.182936E-02  mag=     2.0000
       N       E                     dE             d eps       ncg     rms          rms(c)
DAV:   1    -0.230190169240E+04    0.84676E-03   -0.19432E-01  4464   0.472E-01    0.129E-01
RMM:   2    -0.230190296126E+04   -0.12689E-02   -0.13471E-02  5771   0.892E-02    0.104E-01
RMM:   3    -0.230190311933E+04   -0.15806E-03   -0.12496E-03  4679   0.298E-02    0.156E-01
RMM:   4    -0.230190289663E+04    0.22270E-03   -0.18089E-04  3549   0.923E-03    0.314E-02
RMM:   5    -0.230190287606E+04    0.20564E-04   -0.75595E-05  3555   0.726E-03    0.143E-02
RMM:   6    -0.230190287275E+04    0.33169E-05   -0.16135E-05  2850   0.569E-03
  29 F= -.23222516E+04 E0= -.23222516E+04  d E =-.217295E-02  mag=     2.0000
       N       E                     dE             d eps       ncg     rms          rms(c)
DAV:   1    -0.230190294000E+04   -0.63936E-04   -0.33202E-01  4432   0.616E-01    0.134E-01
RMM:   2    -0.230190447104E+04   -0.15310E-02   -0.16648E-02  5658   0.108E-01    0.827E-02
RMM:   3    -0.230190463565E+04   -0.16461E-03   -0.13105E-03  4846   0.355E-02    0.147E-01
RMM:   4    -0.230190444716E+04    0.18849E-03   -0.18647E-04  3527   0.948E-03    0.383E-02
RMM:   5    -0.230190442676E+04    0.20399E-04   -0.83788E-05  3757   0.831E-03    0.166E-02
RMM:   6    -0.230190442645E+04    0.30868E-06   -0.17693E-05  2861   0.632E-03
  30 F= -.23222533E+04 E0= -.23222533E+04  d E =-.170182E-02  mag=     2.0000
       N       E                     dE             d eps       ncg     rms          rms(c)
DAV:   1    -0.230190195064E+04    0.24761E-02   -0.66389E-01  4432   0.872E-01    0.191E-01
RMM:   2    -0.230190502138E+04   -0.30707E-02   -0.33436E-02  5539   0.152E-01    0.113E-01
RMM:   3    -0.230190531637E+04   -0.29499E-03   -0.25498E-03  5064   0.475E-02    0.200E-01
RMM:   4    -0.230190496913E+04    0.34724E-03   -0.36773E-04  4432   0.128E-02    0.550E-02
RMM:   5    -0.230190492616E+04    0.42966E-04   -0.15934E-04  4159   0.110E-02    0.232E-02
RMM:   6    -0.230190492446E+04    0.16989E-05   -0.33270E-05  2983   0.782E-03
  31 F= -.23222540E+04 E0= -.23222540E+04  d E =-.240613E-02  mag=     2.0000
       N       E                     dE             d eps       ncg     rms          rms(c)
DAV:   1    -0.230190165484E+04    0.32713E-02   -0.61111E-01  4432   0.835E-01    0.206E-01
RMM:   2    -0.230190647158E+04   -0.48167E-02   -0.52100E-02  5650   0.158E-01    0.126E-01
RMM:   3    -0.230190697505E+04   -0.50347E-03   -0.45601E-03  5169   0.512E-02    0.221E-01
RMM:   4    -0.230190661451E+04    0.36053E-03   -0.60484E-04  4053   0.134E-02    0.598E-02
RMM:   5    -0.230190655739E+04    0.57121E-04   -0.17922E-04  4176   0.103E-02    0.307E-02
RMM:   6    -0.230190655001E+04    0.73847E-05   -0.37264E-05  2975   0.744E-03
  32 F= -.23222557E+04 E0= -.23222557E+04  d E =-.171460E-02  mag=     2.0000
       N       E                     dE             d eps       ncg     rms          rms(c)
DAV:   1    -0.230190347009E+04    0.30873E-02   -0.41342E-01  4464   0.687E-01    0.170E-01
RMM:   2    -0.230190672714E+04   -0.32570E-02   -0.35253E-02  5674   0.130E-01    0.106E-01
RMM:   3    -0.230190708256E+04   -0.35542E-03   -0.31642E-03  5076   0.449E-02    0.186E-01
RMM:   4    -0.230190682638E+04    0.25618E-03   -0.41731E-04  3591   0.113E-02    0.495E-02
RMM:   5    -0.230190678669E+04    0.39688E-04   -0.12441E-04  3944   0.879E-03    0.260E-02
RMM:   6    -0.230190678080E+04    0.58896E-05   -0.27442E-05  2892   0.654E-03
  33 F= -.23222560E+04 E0= -.23222560E+04  d E =-.201963E-02  mag=     2.0000
       N       E                     dE             d eps       ncg     rms          rms(c)
DAV:   1    -0.230190256476E+04    0.42219E-02   -0.54453E-01  4432   0.776E-01    0.196E-01
RMM:   2    -0.230190811399E+04   -0.55492E-02   -0.59961E-02  5817   0.153E-01    0.104E-01
RMM:   3    -0.230190851645E+04   -0.40246E-03   -0.50258E-03  5103   0.488E-02    0.150E-01
RMM:   4    -0.230190840520E+04    0.11125E-03   -0.61788E-04  3462   0.116E-02    0.678E-02
RMM:   5    -0.230190833892E+04    0.66283E-04   -0.14577E-04  3961   0.896E-03    0.341E-02
RMM:   6    -0.230190832936E+04    0.95591E-05   -0.36878E-05  2963   0.674E-03
  34 F= -.23222576E+04 E0= -.23222576E+04  d E =-.162053E-02  mag=     2.0000
       N       E                     dE             d eps       ncg     rms          rms(c)
DAV:   1    -0.230190191453E+04    0.64244E-02   -0.64668E-01  4432   0.845E-01    0.214E-01
RMM:   2    -0.230190848965E+04   -0.65751E-02   -0.71132E-02  5772   0.166E-01    0.113E-01
RMM:   3    -0.230190894943E+04   -0.45977E-03   -0.59717E-03  5171   0.535E-02    0.159E-01
RMM:   4    -0.230190883229E+04    0.11714E-03   -0.73148E-04  3617   0.125E-02    0.755E-02
RMM:   5    -0.230190874976E+04    0.82530E-04   -0.17343E-04  4122   0.967E-03    0.372E-02
RMM:   6    -0.230190873697E+04    0.12786E-04   -0.43483E-05  3044   0.711E-03    0.102E-02
RMM:   7    -0.230190873549E+04    0.14851E-05   -0.11813E-05  2840   0.485E-03
  35 F= -.23222581E+04 E0= -.23222581E+04  d E =-.210850E-02  mag=     2.0000
       N       E                     dE             d eps       ncg     rms          rms(c)
DAV:   1    -0.230190661497E+04    0.21220E-02   -0.37420E-01  4480   0.658E-01    0.168E-01
RMM:   2    -0.230190992767E+04   -0.33127E-02   -0.33474E-02  5820   0.129E-01    0.180E-01
RMM:   3    -0.230191006433E+04   -0.13666E-03   -0.29874E-03  5101   0.402E-02    0.177E-01
RMM:   4    -0.230190976897E+04    0.29536E-03   -0.35977E-04  4010   0.114E-02    0.440E-02
RMM:   5    -0.230190973920E+04    0.29769E-04   -0.11823E-04  3824   0.868E-03    0.229E-02
RMM:   6    -0.230190973543E+04    0.37770E-05   -0.28213E-05  2906   0.675E-03
  36 F= -.23222593E+04 E0= -.23222593E+04  d E =-.121620E-02  mag=     2.0000
       N       E                     dE             d eps       ncg     rms          rms(c)
DAV:   1    -0.230190699316E+04    0.27460E-02   -0.33122E-01  4448   0.620E-01    0.158E-01
RMM:   2    -0.230190993815E+04   -0.29450E-02   -0.29759E-02  5814   0.121E-01    0.171E-01
RMM:   3    -0.230191005788E+04   -0.11972E-03   -0.26731E-03  5086   0.381E-02    0.168E-01
RMM:   4    -0.230190979287E+04    0.26501E-03   -0.32071E-04  3823   0.108E-02    0.416E-02
RMM:   5    -0.230190976594E+04    0.26934E-04   -0.10860E-04  3756   0.833E-03    0.218E-02
RMM:   6    -0.230190976191E+04    0.40274E-05   -0.25383E-05  2881   0.660E-03
  37 F= -.23222595E+04 E0= -.23222595E+04  d E =-.144611E-02  mag=     2.0000
       N       E                     dE             d eps       ncg     rms          rms(c)
DAV:   1    -0.230190753323E+04    0.22327E-02   -0.45232E-01  4464   0.726E-01    0.175E-01
RMM:   2    -0.230191132801E+04   -0.37948E-02   -0.33585E-02  5764   0.137E-01    0.308E-01
RMM:   3    -0.230191069310E+04    0.63491E-03   -0.26421E-03  5135   0.445E-02    0.116E-01
RMM:   4    -0.230191055672E+04    0.13638E-03   -0.35025E-04  4233   0.114E-02    0.442E-02
RMM:   5    -0.230191052810E+04    0.28618E-04   -0.89716E-05  3934   0.882E-03    0.300E-02
RMM:   6    -0.230191051994E+04    0.81581E-05   -0.42658E-05  3104   0.736E-03
  38 F= -.23222606E+04 E0= -.23222606E+04  d E =-.105383E-02  mag=     2.0000
       N       E                     dE             d eps       ncg     rms          rms(c)
DAV:   1    -0.230190922756E+04    0.13005E-02   -0.18405E-01  4528   0.464E-01    0.113E-01
RMM:   2    -0.230191082480E+04   -0.15972E-02   -0.13853E-02  5979   0.894E-02    0.208E-01
RMM:   3    -0.230191051985E+04    0.30495E-03   -0.10898E-03  4705   0.268E-02    0.718E-02
RMM:   4    -0.230191046749E+04    0.52361E-04   -0.14277E-04  3098   0.777E-03    0.285E-02
RMM:   5    -0.230191045555E+04    0.11939E-04   -0.39329E-05  3215   0.622E-03    0.196E-02
RMM:   6    -0.230191045190E+04    0.36512E-05   -0.19836E-05  2840   0.584E-03
  39 F= -.23222607E+04 E0= -.23222607E+04  d E =-.117373E-02  mag=     2.0000
       N       E                     dE             d eps       ncg     rms          rms(c)
DAV:   1    -0.230190967115E+04    0.78440E-03   -0.29813E-01  4448   0.594E-01    0.143E-01
RMM:   2    -0.230191135494E+04   -0.16838E-02   -0.16882E-02  5594   0.107E-01    0.154E-01
RMM:   3    -0.230191138073E+04   -0.25786E-04   -0.14511E-03  4931   0.390E-02    0.150E-01
RMM:   4    -0.230191116347E+04    0.21725E-03   -0.20373E-04  4270   0.105E-02    0.365E-02
RMM:   5    -0.230191113709E+04    0.26384E-04   -0.94447E-05  3985   0.917E-03    0.158E-02
RMM:   6    -0.230191113553E+04    0.15581E-05   -0.16750E-05  2843   0.615E-03
  40 F= -.23222616E+04 E0= -.23222616E+04  d E =-.835451E-03  mag=     2.0000
       N       E                     dE             d eps       ncg     rms          rms(c)
DAV:   1    -0.230191100235E+04    0.13474E-03   -0.21029E-02  4848   0.158E-01    0.389E-02
RMM:   2    -0.230191112703E+04   -0.12468E-03   -0.12440E-03  5848   0.302E-02    0.419E-02
RMM:   3    -0.230191112821E+04   -0.11802E-05   -0.10436E-04  3024   0.962E-03    0.412E-02
RMM:   4    -0.230191111200E+04    0.16209E-04   -0.14987E-05  2829   0.399E-03    0.101E-02
RMM:   5    -0.230191110985E+04    0.21525E-05   -0.92496E-06  2830   0.306E-03
  41 F= -.23222616E+04 E0= -.23222616E+04  d E =-.850149E-03  mag=     2.0000
       N       E                     dE             d eps       ncg     rms          rms(c)
DAV:   1    -0.230191061410E+04    0.49790E-03   -0.17683E-01  4448   0.458E-01    0.114E-01
RMM:   2    -0.230191161112E+04   -0.99701E-03   -0.10836E-02  5513   0.814E-02    0.709E-02
RMM:   3    -0.230191173028E+04   -0.11916E-03   -0.98402E-04  4586   0.301E-02    0.124E-01
RMM:   4    -0.230191160648E+04    0.12379E-03   -0.13366E-04  3065   0.790E-03    0.312E-02
RMM:   5    -0.230191159132E+04    0.15158E-04   -0.55395E-05  3132   0.660E-03    0.174E-02
RMM:   6    -0.230191158926E+04    0.20608E-05   -0.17548E-05  2863   0.536E-03
  42 F= -.23222621E+04 E0= -.23222621E+04  d E =-.530855E-03  mag=     2.0000
       N       E                     dE             d eps       ncg     rms          rms(c)
DAV:   1    -0.230191137711E+04    0.21421E-03   -0.37011E-02  4544   0.210E-01    0.525E-02
RMM:   2    -0.230191158909E+04   -0.21198E-03   -0.23088E-03  5768   0.381E-02    0.304E-02
RMM:   3    -0.230191161221E+04   -0.23114E-04   -0.20974E-04  3379   0.137E-02    0.547E-02
RMM:   4    -0.230191158914E+04    0.23063E-04   -0.28487E-05  2840   0.457E-03    0.148E-02
RMM:   5    -0.230191158575E+04    0.33893E-05   -0.12636E-05  2834   0.327E-03
  43 F= -.23222621E+04 E0= -.23222621E+04  d E =-.550977E-03  mag=     2.0000
       N       E                     dE             d eps       ncg     rms          rms(c)
DAV:   1    -0.230191105458E+04    0.53456E-03   -0.14564E-01  4432   0.414E-01    0.950E-02
RMM:   2    -0.230191210234E+04   -0.10478E-02   -0.10927E-02  5676   0.759E-02    0.875E-02
RMM:   3    -0.230191217506E+04   -0.72724E-04   -0.99775E-04  4288   0.260E-02    0.105E-01
RMM:   4    -0.230191208387E+04    0.91187E-04   -0.12102E-04  2932   0.739E-03    0.285E-02
RMM:   5    -0.230191207210E+04    0.11771E-04   -0.44823E-05  2933   0.556E-03    0.154E-02
RMM:   6    -0.230191207046E+04    0.16410E-05   -0.14526E-05  2854   0.476E-03
  44 F= -.23222626E+04 E0= -.23222626E+04  d E =-.500347E-03  mag=     2.0000
       N       E                     dE             d eps       ncg     rms          rms(c)
DAV:   1    -0.230190989241E+04    0.21797E-02   -0.33456E-01  4432   0.627E-01    0.145E-01
RMM:   2    -0.230191228943E+04   -0.23970E-02   -0.24987E-02  5561   0.114E-01    0.134E-01
RMM:   3    -0.230191245142E+04   -0.16198E-03   -0.23074E-03  4932   0.392E-02    0.161E-01
RMM:   4    -0.230191223998E+04    0.21143E-03   -0.28287E-04  3445   0.103E-02    0.427E-02
RMM:   5    -0.230191221316E+04    0.26822E-04   -0.98414E-05  3502   0.776E-03    0.227E-02
RMM:   6    -0.230191220880E+04    0.43595E-05   -0.28727E-05  2918   0.608E-03
  45 F= -.23222628E+04 E0= -.23222628E+04  d E =-.662854E-03  mag=     2.0000
       N       E                     dE             d eps       ncg     rms          rms(c)
DAV:   1    -0.230191143004E+04    0.78312E-03   -0.20348E-01  4464   0.494E-01    0.117E-01
RMM:   2    -0.230191261324E+04   -0.11832E-02   -0.13143E-02  5711   0.900E-02    0.497E-02
RMM:   3    -0.230191263768E+04   -0.24443E-04   -0.10719E-03  4541   0.317E-02    0.368E-02
RMM:   4    -0.230191265143E+04   -0.13752E-04   -0.15109E-04  3198   0.841E-03    0.601E-02
RMM:   5    -0.230191261881E+04    0.32619E-04   -0.47068E-05  2857   0.620E-03    0.176E-02
RMM:   6    -0.230191261522E+04    0.35903E-05   -0.19392E-05  2867   0.469E-03
  46 F= -.23222632E+04 E0= -.23222632E+04  d E =-.427652E-03  mag=     2.0000
       N       E                     dE             d eps       ncg     rms          rms(c)
DAV:   1    -0.230191242952E+04    0.18930E-03   -0.32619E-02  4704   0.198E-01    0.470E-02
RMM:   2    -0.230191262310E+04   -0.19358E-03   -0.21446E-03  5982   0.375E-02    0.207E-02
RMM:   3    -0.230191262793E+04   -0.48331E-05   -0.17786E-04  3158   0.117E-02    0.213E-02
RMM:   4    -0.230191262721E+04    0.71680E-06   -0.22083E-05  2849   0.372E-03
  47 F= -.23222632E+04 E0= -.23222632E+04  d E =-.448153E-03  mag=     2.0000
       N       E                     dE             d eps       ncg     rms          rms(c)
DAV:   1    -0.230191255066E+04    0.77271E-04   -0.82573E-02  4448   0.311E-01    0.767E-02
RMM:   2    -0.230191297414E+04   -0.42349E-03   -0.45304E-03  5586   0.556E-02    0.594E-02
RMM:   3    -0.230191302422E+04   -0.50071E-04   -0.45006E-04  4044   0.210E-02    0.904E-02
RMM:   4    -0.230191295129E+04    0.72923E-04   -0.62455E-05  2887   0.620E-03    0.221E-02
RMM:   5    -0.230191294363E+04    0.76656E-05   -0.33419E-05  2991   0.515E-03
  48 F= -.23222636E+04 E0= -.23222636E+04  d E =-.389209E-03  mag=     2.0000
       N       E                     dE             d eps       ncg     rms          rms(c)
DAV:   1    -0.230191257658E+04    0.37472E-03   -0.76134E-02  4464   0.299E-01    0.745E-02
RMM:   2    -0.230191298818E+04   -0.41160E-03   -0.42618E-03  5995   0.553E-02    0.667E-02
RMM:   3    -0.230191302330E+04   -0.35121E-04   -0.41867E-04  3840   0.179E-02    0.859E-02
RMM:   4    -0.230191295623E+04    0.67071E-04   -0.56453E-05  2878   0.634E-03    0.201E-02
RMM:   5    -0.230191294960E+04    0.66260E-05   -0.31057E-05  2916   0.509E-03
  49 F= -.23222637E+04 E0= -.23222637E+04  d E =-.464836E-03  mag=     2.0000
       N       E                     dE             d eps       ncg     rms          rms(c)
DAV:   1    -0.230191271613E+04    0.24009E-03   -0.90027E-02  4432   0.322E-01    0.749E-02
RMM:   2    -0.230191317553E+04   -0.45940E-03   -0.50678E-03  5829   0.579E-02    0.358E-02
RMM:   3    -0.230191319653E+04   -0.20996E-04   -0.41573E-04  3899   0.204E-02    0.454E-02
RMM:   4    -0.230191318466E+04    0.11866E-04   -0.49484E-05  2864   0.554E-03    0.287E-02
RMM:   5    -0.230191317496E+04    0.97023E-05   -0.26893E-05  2861   0.475E-03
  50 F= -.23222640E+04 E0= -.23222640E+04  d E =-.302298E-03  mag=     2.0000
       N       E                     dE             d eps       ncg     rms          rms(c)
DAV:   1    -0.230191289451E+04    0.29015E-03   -0.51650E-02  4528   0.244E-01    0.572E-02
RMM:   2    -0.230191316079E+04   -0.26629E-03   -0.29462E-03  5903   0.446E-02    0.273E-02
RMM:   3    -0.230191317145E+04   -0.10659E-04   -0.25051E-04  3488   0.150E-02    0.325E-02
RMM:   4    -0.230191316632E+04    0.51383E-05   -0.29822E-05  2848   0.448E-03
  51 F= -.23222640E+04 E0= -.23222640E+04  d E =-.351887E-03  mag=     2.0000
       N       E                     dE             d eps       ncg     rms          rms(c)
DAV:   1    -0.230191282053E+04    0.35093E-03   -0.10027E-01  4432   0.345E-01    0.914E-02
RMM:   2    -0.230191361691E+04   -0.79638E-03   -0.75177E-03  5615   0.640E-02    0.132E-01
RMM:   3    -0.230191352432E+04    0.92589E-04   -0.60610E-04  4160   0.224E-02    0.718E-02
RMM:   4    -0.230191347374E+04    0.50586E-04   -0.78554E-05  2920   0.661E-03    0.231E-02
RMM:   5    -0.230191346440E+04    0.93332E-05   -0.36001E-05  3105   0.570E-03
  52 F= -.23222643E+04 E0= -.23222643E+04  d E =-.304319E-03  mag=     2.0000
       N       E                     dE             d eps       ncg     rms          rms(c)
DAV:   1    -0.230191334681E+04    0.12693E-03   -0.19073E-02  4688   0.151E-01    0.401E-02
RMM:   2    -0.230191349087E+04   -0.14406E-03   -0.14332E-03  5885   0.300E-02    0.473E-02
RMM:   3    -0.230191348751E+04    0.33595E-05   -0.12830E-04  3003   0.960E-03    0.364E-02
RMM:   4    -0.230191347533E+04    0.12178E-04   -0.16581E-05  2828   0.400E-03    0.106E-02
RMM:   5    -0.230191347362E+04    0.17188E-05   -0.82270E-06  2831   0.278E-03
  53 F= -.23222644E+04 E0= -.23222644E+04  d E =-.316205E-03  mag=     2.0000
       N       E                     dE             d eps       ncg     rms          rms(c)
DAV:   1    -0.230191294182E+04    0.53351E-03   -0.11758E-01  4432   0.373E-01    0.981E-02
RMM:   2    -0.230191406706E+04   -0.11252E-02   -0.96543E-03  5636   0.707E-02    0.185E-01
RMM:   3    -0.230191381348E+04    0.25359E-03   -0.80218E-04  4189   0.248E-02    0.529E-02
RMM:   4    -0.230191378160E+04    0.31881E-04   -0.10046E-04  2948   0.666E-03    0.246E-02
RMM:   5    -0.230191377061E+04    0.10985E-04   -0.34631E-05  3013   0.563E-03    0.124E-02
RMM:   6    -0.230191376847E+04    0.21375E-05   -0.13525E-05  2826   0.508E-03
  54 F= -.23222646E+04 E0= -.23222646E+04  d E =-.272084E-03  mag=     2.0000
       N       E                     dE             d eps       ncg     rms          rms(c)
DAV:   1    -0.230191366007E+04    0.11054E-03   -0.16013E-02  4576   0.138E-01    0.373E-02
RMM:   2    -0.230191382298E+04   -0.16292E-03   -0.13615E-03  5766   0.275E-02    0.732E-02
RMM:   3    -0.230191378229E+04    0.40693E-04   -0.11533E-04  2937   0.938E-03    0.191E-02
RMM:   4    -0.230191377832E+04    0.39671E-05   -0.15506E-05  2850   0.335E-03
  55 F= -.23222646E+04 E0= -.23222646E+04  d E =-.273441E-03  mag=     2.0000
       N       E                     dE             d eps       ncg     rms          rms(c)
DAV:   1    -0.230191344763E+04    0.33466E-03   -0.12054E-01  4432   0.377E-01    0.920E-02
RMM:   2    -0.230191423374E+04   -0.78611E-03   -0.73428E-03  5558   0.669E-02    0.133E-01
RMM:   3    -0.230191414145E+04    0.92288E-04   -0.64992E-04  4155   0.246E-02    0.725E-02
RMM:   4    -0.230191408778E+04    0.53667E-04   -0.81868E-05  2923   0.676E-03    0.241E-02
RMM:   5    -0.230191407730E+04    0.10487E-04   -0.36118E-05  3078   0.571E-03    0.101E-02
RMM:   6    -0.230191407625E+04    0.10459E-05   -0.10962E-05  2822   0.494E-03
  56 F= -.23222649E+04 E0= -.23222649E+04  d E =-.250030E-03  mag=     2.0000
       N       E                     dE             d eps       ncg     rms          rms(c)
DAV:   1    -0.230191400543E+04    0.71865E-04   -0.15380E-02  4640   0.135E-01    0.338E-02
RMM:   2    -0.230191411115E+04   -0.10572E-03   -0.97572E-04  5631   0.252E-02    0.495E-02
RMM:   3    -0.230191409790E+04    0.13259E-04   -0.86166E-05  2920   0.925E-03    0.266E-02
RMM:   4    -0.230191409094E+04    0.69565E-05   -0.11652E-05  2827   0.325E-03
  57 F= -.23222649E+04 E0= -.23222649E+04  d E =-.247469E-03  mag=     2.0000
       N       E                     dE             d eps       ncg     rms          rms(c)
DAV:   1    -0.230191398488E+04    0.11301E-03   -0.87985E-02  4432   0.320E-01    0.725E-02
RMM:   2    -0.230191440243E+04   -0.41755E-03   -0.44855E-03  5534   0.546E-02    0.518E-02
RMM:   3    -0.230191444227E+04   -0.39842E-04   -0.39673E-04  3866   0.203E-02    0.803E-02
RMM:   4    -0.230191438637E+04    0.55899E-04   -0.56880E-05  2884   0.593E-03    0.211E-02
RMM:   5    -0.230191437826E+04    0.81141E-05   -0.28745E-05  2890   0.503E-03
  58 F= -.23222651E+04 E0= -.23222651E+04  d E =-.238852E-03  mag=     2.0000
       N       E                     dE             d eps       ncg     rms          rms(c)
DAV:   1    -0.230191420870E+04    0.17767E-03   -0.50540E-02  4432   0.243E-01    0.555E-02
RMM:   2    -0.230191445062E+04   -0.24192E-03   -0.26345E-03  5945   0.437E-02    0.329E-02
RMM:   3    -0.230191446992E+04   -0.19303E-04   -0.22454E-04  3382   0.143E-02    0.535E-02
RMM:   4    -0.230191444658E+04    0.23339E-04   -0.31573E-05  2844   0.487E-03    0.171E-02
RMM:   5    -0.230191444165E+04    0.49377E-05   -0.15998E-05  2832   0.377E-03
  59 F= -.23222651E+04 E0= -.23222651E+04  d E =-.265269E-03  mag=     2.0000
       N       E                     dE             d eps       ncg     rms          rms(c)
DAV:   1    -0.230191417650E+04    0.27008E-03   -0.11242E-01  4428   0.361E-01    0.842E-02
RMM:   2    -0.230191469211E+04   -0.51561E-03   -0.56514E-03  5632   0.624E-02    0.430E-02
RMM:   3    -0.230191472600E+04   -0.33883E-04   -0.49105E-04  4096   0.240E-02    0.670E-02
RMM:   4    -0.230191469274E+04    0.33258E-04   -0.64032E-05  2880   0.617E-03    0.273E-02
RMM:   5    -0.230191468100E+04    0.11736E-04   -0.35769E-05  2929   0.548E-03    0.980E-03
RMM:   6    -0.230191468039E+04    0.61348E-06   -0.86084E-06  2836   0.441E-03
  60 F= -.23222654E+04 E0= -.23222654E+04  d E =-.262897E-03  mag=     2.0000
       N       E                     dE             d eps       ncg     rms          rms(c)
DAV:   1    -0.230191458540E+04    0.95605E-04   -0.20498E-02  4640   0.154E-01    0.364E-02
RMM:   2    -0.230191468212E+04   -0.96719E-04   -0.10568E-03  5632   0.270E-02    0.180E-02
RMM:   3    -0.230191468639E+04   -0.42761E-05   -0.86770E-05  2970   0.103E-02
  61 F= -.23222654E+04 E0= -.23222654E+04  d E =-.279185E-03  mag=     2.0000
       N       E                     dE             d eps       ncg     rms          rms(c)
DAV:   1    -0.230191441890E+04    0.26322E-03   -0.11207E-01  4432   0.358E-01    0.841E-02
RMM:   2    -0.230191491286E+04   -0.49396E-03   -0.54184E-03  5459   0.606E-02    0.477E-02
RMM:   3    -0.230191493588E+04   -0.23023E-04   -0.43180E-04  4051   0.213E-02    0.662E-02
RMM:   4    -0.230191490467E+04    0.31208E-04   -0.66791E-05  2890   0.628E-03    0.328E-02
RMM:   5    -0.230191489046E+04    0.14217E-04   -0.41091E-05  3044   0.594E-03    0.106E-02
RMM:   6    -0.230191489034E+04    0.11735E-06   -0.88630E-06  2832   0.469E-03
  62 F= -.23222657E+04 E0= -.23222657E+04  d E =-.258746E-03  mag=     2.0000
       N       E                     dE             d eps       ncg     rms          rms(c)
DAV:   1    -0.230191483018E+04    0.60274E-04   -0.10363E-02  4736   0.109E-01    0.260E-02
RMM:   2    -0.230191487893E+04   -0.48743E-04   -0.52059E-04  5396   0.194E-02    0.174E-02
RMM:   3    -0.230191488481E+04   -0.58832E-05   -0.47860E-05  2857   0.812E-03
  63 F= -.23222657E+04 E0= -.23222657E+04  d E =-.269968E-03  mag=     2.0000
       N       E                     dE             d eps       ncg     rms          rms(c)
DAV:   1    -0.230191462642E+04    0.25251E-03   -0.12166E-01  4432   0.373E-01    0.906E-02
RMM:   2    -0.230191515520E+04   -0.52878E-03   -0.58763E-03  5438   0.621E-02    0.432E-02
RMM:   3    -0.230191515898E+04   -0.37815E-05   -0.45845E-04  4106   0.219E-02    0.400E-02
RMM:   4    -0.230191516023E+04   -0.12454E-05   -0.70901E-05  2900   0.619E-03
  64 F= -.23222660E+04 E0= -.23222660E+04  d E =-.283238E-03  mag=     2.0000
       N       E                     dE             d eps       ncg     rms          rms(c)
DAV:   1    -0.230191508434E+04    0.74636E-04   -0.13193E-02  4848   0.123E-01    0.337E-02
RMM:   2    -0.230191515825E+04   -0.73901E-04   -0.66156E-04  5441   0.217E-02    0.477E-02
RMM:   3    -0.230191514686E+04    0.11386E-04   -0.69172E-05  2922   0.855E-03    0.278E-02
RMM:   4    -0.230191513905E+04    0.78111E-05   -0.10866E-05  2827   0.359E-03
  65 F= -.23222660E+04 E0= -.23222660E+04  d E =-.264647E-03  mag=     2.0000
       N       E                     dE             d eps       ncg     rms          rms(c)
DAV:   1    -0.230191483879E+04    0.30807E-03   -0.12297E-01  4428   0.376E-01    0.917E-02
RMM:   2    -0.230191549496E+04   -0.65617E-03   -0.68361E-03  5540   0.642E-02    0.808E-02
RMM:   3    -0.230191554834E+04   -0.53383E-04   -0.64382E-04  4110   0.242E-02    0.101E-01
RMM:   4    -0.230191545616E+04    0.92176E-04   -0.87447E-05  2962   0.710E-03    0.251E-02
RMM:   5    -0.230191544477E+04    0.11393E-04   -0.45650E-05  3132   0.608E-03    0.107E-02
RMM:   6    -0.230191544433E+04    0.43472E-06   -0.95671E-06  2840   0.481E-03
  66 F= -.23222662E+04 E0= -.23222662E+04  d E =-.251668E-03  mag=     2.0000
       N       E                     dE             d eps       ncg     rms          rms(c)
DAV:   1    -0.230191542038E+04    0.24385E-04   -0.64083E-03  4880   0.863E-02    0.214E-02
RMM:   2    -0.230191545563E+04   -0.35249E-04   -0.37340E-04  5160   0.161E-02    0.162E-02
RMM:   3    -0.230191546002E+04   -0.43866E-05   -0.35788E-05  2831   0.664E-03
  67 F= -.23222662E+04 E0= -.23222662E+04  d E =-.255003E-03  mag=     2.0000
       N       E                     dE             d eps       ncg     rms          rms(c)
DAV:   1    -0.230191503599E+04    0.41964E-03   -0.11582E-01  4432   0.365E-01    0.101E-01
RMM:   2    -0.230191589315E+04   -0.85716E-03   -0.80142E-03  5687   0.661E-02    0.138E-01
RMM:   3    -0.230191580514E+04    0.88018E-04   -0.72723E-04  4041   0.226E-02    0.818E-02
RMM:   4    -0.230191573868E+04    0.66458E-04   -0.97780E-05  3025   0.704E-03    0.247E-02
RMM:   5    -0.230191572715E+04    0.11531E-04   -0.38295E-05  3119   0.597E-03    0.109E-02
RMM:   6    -0.230191572598E+04    0.11626E-05   -0.12033E-05  2822   0.510E-03
  68 F= -.23222664E+04 E0= -.23222664E+04  d E =-.232465E-03  mag=     2.0000
       N       E                     dE             d eps       ncg     rms          rms(c)
DAV:   1    -0.230191571455E+04    0.12592E-04   -0.18612E-03  5200   0.467E-02    0.136E-02
RMM:   2    -0.230191572925E+04   -0.14695E-04   -0.13602E-04  3882   0.993E-03    0.183E-02
RMM:   3    -0.230191572829E+04    0.95507E-06   -0.15642E-05  2661   0.511E-03
  69 F= -.23222664E+04 E0= -.23222664E+04  d E =-.230418E-03  mag=     2.0000
       N       E                     dE             d eps       ncg     rms          rms(c)
DAV:   1    -0.230191536326E+04    0.36599E-03   -0.87032E-02  4432   0.312E-01    0.846E-02
RMM:   2    -0.230191609594E+04   -0.73268E-03   -0.69176E-03  5704   0.573E-02    0.119E-01
RMM:   3    -0.230191604083E+04    0.55106E-04   -0.65540E-04  3856   0.201E-02    0.679E-02
RMM:   4    -0.230191599828E+04    0.42551E-04   -0.84190E-05  2892   0.614E-03    0.220E-02
RMM:   5    -0.230191599080E+04    0.74801E-05   -0.24884E-05  2869   0.485E-03
  70 F= -.23222667E+04 E0= -.23222667E+04  d E =-.279682E-03  mag=     2.0000
       N       E                     dE             d eps       ncg     rms          rms(c)
DAV:   1    -0.230191543776E+04    0.56052E-03   -0.78032E-02  4428   0.296E-01    0.795E-02
RMM:   2    -0.230191606499E+04   -0.62723E-03   -0.61771E-03  6055   0.556E-02    0.966E-02
RMM:   3    -0.230191605968E+04    0.53148E-05   -0.58442E-04  3706   0.185E-02    0.730E-02
RMM:   4    -0.230191601105E+04    0.48628E-04   -0.72441E-05  2885   0.635E-03    0.210E-02
RMM:   5    -0.230191600462E+04    0.64307E-05   -0.25518E-05  2864   0.482E-03
  71 F= -.23222668E+04 E0= -.23222668E+04  d E =-.309449E-03  mag=     2.0000
       N       E                     dE             d eps       ncg     rms          rms(c)
DAV:   1    -0.230191579361E+04    0.21743E-03   -0.56046E-02  4432   0.247E-01    0.621E-02
RMM:   2    -0.230191623172E+04   -0.43810E-03   -0.45950E-03  6100   0.463E-02    0.549E-02
RMM:   3    -0.230191627299E+04   -0.41275E-04   -0.44480E-04  3426   0.153E-02    0.671E-02
RMM:   4    -0.230191623427E+04    0.38725E-04   -0.55250E-05  2871   0.550E-03    0.184E-02
RMM:   5    -0.230191623005E+04    0.42200E-05   -0.17477E-05  2850   0.370E-03
  72 F= -.23222670E+04 E0= -.23222670E+04  d E =-.241045E-03  mag=     2.0000
       N       E                     dE             d eps       ncg     rms          rms(c)
DAV:   1    -0.230191470340E+04    0.15309E-02   -0.21257E-01  4424   0.481E-01    0.120E-01
RMM:   2    -0.230191637720E+04   -0.16738E-02   -0.17326E-02  5842   0.872E-02    0.118E-01
RMM:   3    -0.230191650288E+04   -0.12567E-03   -0.16991E-03  4558   0.318E-02    0.126E-01
RMM:   4    -0.230191636387E+04    0.13900E-03   -0.20225E-04  3159   0.857E-03    0.349E-02
RMM:   5    -0.230191634689E+04    0.16985E-04   -0.59432E-05  3063   0.652E-03    0.158E-02
RMM:   6    -0.230191634508E+04    0.18085E-05   -0.19953E-05  2867   0.557E-03
  73 F= -.23222671E+04 E0= -.23222671E+04  d E =-.385512E-03  mag=     2.0000
       N       E                     dE             d eps       ncg     rms          rms(c)
DAV:   1    -0.230191594507E+04    0.40182E-03   -0.10198E-01  4428   0.332E-01    0.859E-02
RMM:   2    -0.230191671056E+04   -0.76549E-03   -0.82580E-03  5868   0.605E-02    0.553E-02
RMM:   3    -0.230191680106E+04   -0.90505E-04   -0.81877E-04  3981   0.216E-02    0.864E-02
RMM:   4    -0.230191674009E+04    0.60972E-04   -0.10111E-04  2931   0.635E-03    0.256E-02
RMM:   5    -0.230191673103E+04    0.90614E-05   -0.31590E-05  2869   0.476E-03
  74 F= -.23222675E+04 E0= -.23222675E+04  d E =-.404138E-03  mag=     2.0000
       N       E                     dE             d eps       ncg     rms          rms(c)
DAV:   1    -0.230191596990E+04    0.77019E-03   -0.11323E-01  4428   0.349E-01    0.903E-02
RMM:   2    -0.230191681104E+04   -0.84114E-03   -0.91423E-03  5892   0.635E-02    0.521E-02
RMM:   3    -0.230191689676E+04   -0.85721E-04   -0.88894E-04  3999   0.231E-02    0.760E-02
RMM:   4    -0.230191685427E+04    0.42489E-04   -0.11268E-04  2926   0.654E-03    0.305E-02
RMM:   5    -0.230191684210E+04    0.12179E-04   -0.31284E-05  2852   0.507E-03    0.131E-02
RMM:   6    -0.230191684093E+04    0.11703E-05   -0.11675E-05  2841   0.430E-03
  75 F= -.23222677E+04 E0= -.23222677E+04  d E =-.532728E-03  mag=     2.0000
       N       E                     dE             d eps       ncg     rms          rms(c)
DAV:   1    -0.230191627615E+04    0.56595E-03   -0.11490E-01  4428   0.348E-01    0.916E-02
RMM:   2    -0.230191718310E+04   -0.90695E-03   -0.98555E-03  5697   0.627E-02    0.516E-02
RMM:   3    -0.230191727281E+04   -0.89707E-04   -0.98005E-04  4096   0.252E-02    0.735E-02
RMM:   4    -0.230191723507E+04    0.37739E-04   -0.12079E-04  2906   0.634E-03    0.312E-02
RMM:   5    -0.230191722245E+04    0.12614E-04   -0.33739E-05  2861   0.505E-03    0.138E-02
RMM:   6    -0.230191722127E+04    0.11786E-05   -0.12015E-05  2839   0.432E-03
  76 F= -.23222681E+04 E0= -.23222681E+04  d E =-.428888E-03  mag=     2.0000
       N       E                     dE             d eps       ncg     rms          rms(c)
DAV:   1    -0.230191645430E+04    0.76815E-03   -0.10042E-01  4448   0.325E-01    0.858E-02
RMM:   2    -0.230191724924E+04   -0.79494E-03   -0.86412E-03  5672   0.586E-02    0.477E-02
RMM:   3    -0.230191732516E+04   -0.75921E-04   -0.85739E-04  3992   0.237E-02    0.664E-02
RMM:   4    -0.230191729527E+04    0.29894E-04   -0.10568E-04  2903   0.601E-03    0.297E-02
RMM:   5    -0.230191728372E+04    0.11549E-04   -0.30100E-05  2849   0.478E-03    0.134E-02
RMM:   6    -0.230191728231E+04    0.14077E-05   -0.11353E-05  2841   0.414E-03
  77 F= -.23222682E+04 E0= -.23222682E+04  d E =-.534877E-03  mag=     2.0000
       N       E                     dE             d eps       ncg     rms          rms(c)
DAV:   1    -0.230191662639E+04    0.65732E-03   -0.11709E-01  4424   0.348E-01    0.899E-02
RMM:   2    -0.230191762123E+04   -0.99483E-03   -0.10627E-02  5764   0.633E-02    0.644E-02
RMM:   3    -0.230191773132E+04   -0.11010E-03   -0.10639E-03  4059   0.248E-02    0.909E-02
RMM:   4    -0.230191766529E+04    0.66038E-04   -0.13292E-04  2932   0.666E-03    0.285E-02
RMM:   5    -0.230191765472E+04    0.10566E-04   -0.36524E-05  2870   0.500E-03    0.143E-02
RMM:   6    -0.230191765375E+04    0.96578E-06   -0.13108E-05  2846   0.435E-03
  78 F= -.23222686E+04 E0= -.23222686E+04  d E =-.410801E-03  mag=     2.0000
       N       E                     dE             d eps       ncg     rms          rms(c)
DAV:   1    -0.230191609718E+04    0.15575E-02   -0.18708E-01  4424   0.440E-01    0.114E-01
RMM:   2    -0.230191769821E+04   -0.16010E-02   -0.17053E-02  5656   0.799E-02    0.843E-02
RMM:   3    -0.230191787186E+04   -0.17365E-03   -0.17001E-03  4466   0.316E-02    0.116E-01
RMM:   4    -0.230191776164E+04    0.11021E-03   -0.21368E-04  3055   0.785E-03    0.358E-02
RMM:   5    -0.230191774401E+04    0.17634E-04   -0.54476E-05  2970   0.607E-03    0.178E-02
RMM:   6    -0.230191774201E+04    0.20008E-05   -0.20577E-05  2865   0.528E-03
  79 F= -.23222688E+04 E0= -.23222688E+04  d E =-.547867E-03  mag=     2.0000
       N       E                     dE             d eps       ncg     rms          rms(c)
DAV:   1    -0.230191724091E+04    0.50310E-03   -0.10304E-01  4464   0.327E-01    0.863E-02
RMM:   2    -0.230191814058E+04   -0.89967E-03   -0.93725E-03  5937   0.608E-02    0.791E-02
RMM:   3    -0.230191822196E+04   -0.81385E-04   -0.92685E-04  3932   0.215E-02    0.917E-02
RMM:   4    -0.230191815029E+04    0.71675E-04   -0.11423E-04  2942   0.659E-03    0.248E-02
RMM:   5    -0.230191814221E+04    0.80808E-05   -0.32857E-05  2868   0.478E-03
  80 F= -.23222692E+04 E0= -.23222692E+04  d E =-.424984E-03  mag=     2.0000
       N       E                     dE             d eps       ncg     rms          rms(c)
DAV:   1    -0.230191528353E+04    0.28668E-02   -0.35326E-01  4424   0.605E-01    0.159E-01
RMM:   2    -0.230191833022E+04   -0.30467E-02   -0.31849E-02  5836   0.111E-01    0.140E-01
RMM:   3    -0.230191861935E+04   -0.28913E-03   -0.31585E-03  4992   0.410E-02    0.165E-01
RMM:   4    -0.230191838802E+04    0.23133E-03   -0.39140E-04  3632   0.105E-02    0.473E-02
RMM:   5    -0.230191835902E+04    0.28997E-04   -0.10239E-04  3440   0.789E-03    0.227E-02
RMM:   6    -0.230191835613E+04    0.28941E-05   -0.33836E-05  2966   0.637E-03
  81 F= -.23222694E+04 E0= -.23222694E+04  d E =-.683216E-03  mag=     2.0000
       N       E                     dE             d eps       ncg     rms          rms(c)
DAV:   1    -0.230191776134E+04    0.59768E-03   -0.12520E-01  4464   0.360E-01    0.944E-02
RMM:   2    -0.230191889489E+04   -0.11335E-02   -0.11613E-02  6090   0.681E-02    0.982E-02
RMM:   3    -0.230191897160E+04   -0.76710E-04   -0.11579E-03  4124   0.228E-02    0.971E-02
RMM:   4    -0.230191889091E+04    0.80690E-04   -0.13696E-04  2966   0.712E-03    0.266E-02
RMM:   5    -0.230191888187E+04    0.90421E-05   -0.36358E-05  2889   0.504E-03
  82 F= -.23222700E+04 E0= -.23222700E+04  d E =-.552419E-03  mag=     2.0000
       N       E                     dE             d eps       ncg     rms          rms(c)
DAV:   1    -0.230190967271E+04    0.92182E-02   -0.11010E+00  4424   0.107E+00    0.279E-01
RMM:   2    -0.230191960642E+04   -0.99337E-02   -0.10120E-01  5802   0.195E-01    0.300E-01
RMM:   3    -0.230192013090E+04   -0.52449E-03   -0.10047E-02  5418   0.681E-02    0.271E-01
RMM:   4    -0.230191950721E+04    0.62369E-03   -0.12179E-03  4975   0.175E-02    0.799E-02
RMM:   5    -0.230191942052E+04    0.86691E-04   -0.27212E-04  4205   0.119E-02    0.377E-02
RMM:   6    -0.230191941130E+04    0.92184E-05   -0.10269E-04  3953   0.919E-03    0.219E-02
RMM:   7    -0.230191940774E+04    0.35689E-05   -0.13470E-05  2843   0.554E-03
  83 F= -.23222706E+04 E0= -.23222706E+04  d E =-.115350E-02  mag=     2.0000
       N       E                     dE             d eps       ncg     rms          rms(c)
DAV:   1    -0.230191895710E+04    0.45420E-03   -0.10462E-01  4576   0.325E-01    0.831E-02
RMM:   2    -0.230191995320E+04   -0.99610E-03   -0.99880E-03  5835   0.605E-02    0.101E-01
RMM:   3    -0.230191998618E+04   -0.32977E-04   -0.10090E-03  3832   0.211E-02    0.779E-02
RMM:   4    -0.230191993741E+04    0.48766E-04   -0.12042E-04  2916   0.615E-03    0.242E-02
RMM:   5    -0.230191992952E+04    0.78877E-05   -0.22250E-05  2855   0.417E-03
  84 F= -.23222711E+04 E0= -.23222711E+04  d E =-.529629E-03  mag=     2.0000
       N       E                     dE             d eps       ncg     rms          rms(c)
DAV:   1    -0.230191231942E+04    0.76180E-02   -0.93766E-01  4424   0.972E-01    0.246E-01
RMM:   2    -0.230192105407E+04   -0.87347E-02   -0.88769E-02  5862   0.179E-01    0.279E-01
RMM:   3    -0.230192147893E+04   -0.42486E-03   -0.89503E-03  5474   0.598E-02    0.235E-01
RMM:   4    -0.230192103205E+04    0.44688E-03   -0.10557E-03  4677   0.154E-02    0.733E-02
RMM:   5    -0.230192096210E+04    0.69948E-04   -0.19205E-04  3973   0.102E-02    0.352E-02
RMM:   6    -0.230192095735E+04    0.47513E-05   -0.84535E-05  3656   0.845E-03
  85 F= -.23222722E+04 E0= -.23222722E+04  d E =-.157749E-02  mag=     2.0000
       N       E                     dE             d eps       ncg     rms          rms(c)
DAV:   1    -0.230188611262E+04    0.34849E-01   -0.37611E+00  4424   0.195E+00    0.500E-01
RMM:   2    -0.230192198791E+04   -0.35875E-01   -0.35784E-01  5794   0.358E-01    0.629E-01
RMM:   3    -0.230192253633E+04   -0.54842E-03   -0.36868E-02  5537   0.124E-01    0.438E-01
RMM:   4    -0.230192102263E+04    0.15137E-02   -0.42334E-03  5363   0.301E-02    0.145E-01
RMM:   5    -0.230192074687E+04    0.27576E-03   -0.74269E-04  4850   0.192E-02    0.714E-02
RMM:   6    -0.230192072278E+04    0.24086E-04   -0.34979E-04  4830   0.147E-02    0.407E-02
RMM:   7    -0.230192070939E+04    0.13398E-04   -0.35605E-05  3019   0.727E-03    0.133E-02
RMM:   8    -0.230192070545E+04    0.39347E-05   -0.13055E-05  2834   0.370E-03
  86 F= -.23222719E+04 E0= -.23222719E+04  d E =-.135058E-02  mag=     2.0000
       N       E                     dE             d eps       ncg     rms          rms(c)
DAV:   1    -0.230191136628E+04    0.93431E-02   -0.10775E+00  4424   0.104E+00    0.259E-01
RMM:   2    -0.230192104434E+04   -0.96781E-02   -0.10038E-01  5764   0.190E-01    0.253E-01
RMM:   3    -0.230192197288E+04   -0.92855E-03   -0.10543E-02  5375   0.652E-02    0.285E-01
RMM:   4    -0.230192130284E+04    0.67004E-03   -0.12047E-03  4788   0.166E-02    0.770E-02
RMM:   5    -0.230192122154E+04    0.81306E-04   -0.27072E-04  4114   0.115E-02    0.351E-02
RMM:   6    -0.230192121915E+04    0.23904E-05   -0.79024E-05  3571   0.868E-03
  87 F= -.23222724E+04 E0= -.23222724E+04  d E =-.185338E-02  mag=     2.0000
       N       E                     dE             d eps       ncg     rms          rms(c)
DAV:   1    -0.230192012187E+04    0.10997E-02   -0.21049E-01  4428   0.454E-01    0.113E-01
RMM:   2    -0.230192212573E+04   -0.20039E-02   -0.20030E-02  6097   0.854E-02    0.143E-01
RMM:   3    -0.230192218090E+04   -0.55174E-04   -0.20367E-03  4537   0.285E-02    0.102E-01
RMM:   4    -0.230192209789E+04    0.83017E-04   -0.23206E-04  3044   0.790E-03    0.348E-02
RMM:   5    -0.230192207894E+04    0.18944E-04   -0.44036E-05  2948   0.571E-03    0.163E-02
RMM:   6    -0.230192207837E+04    0.57952E-06   -0.20773E-05  2861   0.515E-03
  88 F= -.23222733E+04 E0= -.23222733E+04  d E =-.850849E-03  mag=     2.0000
       N       E                     dE             d eps       ncg     rms          rms(c)
DAV:   1    -0.230190613007E+04    0.15949E-01   -0.18841E+00  4424   0.136E+00    0.346E-01
RMM:   2    -0.230192417802E+04   -0.18048E-01   -0.18159E-01  5797   0.250E-01    0.420E-01
RMM:   3    -0.230192477671E+04   -0.59870E-03   -0.18742E-02  5493   0.854E-02    0.314E-01
RMM:   4    -0.230192401573E+04    0.76099E-03   -0.21783E-03  5139   0.210E-02    0.104E-01
RMM:   5    -0.230192387611E+04    0.13962E-03   -0.36048E-04  4399   0.136E-02    0.503E-02
RMM:   6    -0.230192387003E+04    0.60778E-05   -0.16505E-04  4227   0.107E-02    0.298E-02
RMM:   7    -0.230192386342E+04    0.66067E-05   -0.18165E-05  2851   0.583E-03
  89 F= -.23222750E+04 E0= -.23222750E+04  d E =-.260364E-02  mag=     2.0000
       N       E                     dE             d eps       ncg     rms          rms(c)
DAV:   1    -0.230185262254E+04    0.71247E-01   -0.75449E+00  4424   0.272E+00    0.703E-01
RMM:   2    -0.230192704101E+04   -0.74418E-01   -0.73842E-01  5811   0.504E-01    0.917E-01
RMM:   3    -0.230192705490E+04   -0.13891E-04   -0.76511E-02  5597   0.169E-01    0.583E-01
RMM:   4    -0.230192448217E+04    0.25727E-02   -0.86272E-03  5431   0.411E-02    0.207E-01
RMM:   5    -0.230192392272E+04    0.55945E-03   -0.14943E-03  4877   0.267E-02    0.100E-01
RMM:   6    -0.230192389989E+04    0.22832E-04   -0.66044E-04  4980   0.198E-02    0.597E-02
RMM:   7    -0.230192387152E+04    0.28370E-04   -0.71078E-05  3424   0.875E-03    0.199E-02
RMM:   8    -0.230192386276E+04    0.87580E-05   -0.25804E-05  2841   0.450E-03
  90 F= -.23222750E+04 E0= -.23222750E+04  d E =-.250803E-02  mag=     2.0000
       N       E                     dE             d eps       ncg     rms          rms(c)
DAV:   1    -0.230190616736E+04    0.17704E-01   -0.19501E+00  4424   0.138E+00    0.342E-01
RMM:   2    -0.230192371758E+04   -0.17550E-01   -0.18408E-01  5804   0.254E-01    0.298E-01
RMM:   3    -0.230192579507E+04   -0.20775E-02   -0.19762E-02  5478   0.840E-02    0.389E-01
RMM:   4    -0.230192457760E+04    0.12175E-02   -0.22648E-03  5256   0.218E-02    0.105E-01
RMM:   5    -0.230192443682E+04    0.14078E-03   -0.47728E-04  4435   0.143E-02    0.502E-02
RMM:   6    -0.230192443108E+04    0.57371E-05   -0.14712E-04  4169   0.106E-02    0.265E-02
RMM:   7    -0.230192442801E+04    0.30730E-05   -0.19469E-05  2867   0.533E-03
  91 F= -.23222756E+04 E0= -.23222756E+04  d E =-.312646E-02  mag=     2.0000
       N       E                     dE             d eps       ncg     rms          rms(c)
DAV:   1    -0.230192159332E+04    0.28378E-02   -0.44408E-01  4448   0.653E-01    0.161E-01
RMM:   2    -0.230192565370E+04   -0.40604E-02   -0.41974E-02  5810   0.119E-01    0.161E-01
RMM:   3    -0.230192597920E+04   -0.32549E-03   -0.42826E-03  5127   0.411E-02    0.162E-01
RMM:   4    -0.230192577022E+04    0.20898E-03   -0.49980E-04  3420   0.103E-02    0.516E-02
RMM:   5    -0.230192573547E+04    0.34742E-04   -0.92372E-05  3197   0.731E-03    0.254E-02
RMM:   6    -0.230192573368E+04    0.17966E-05   -0.40668E-05  2990   0.632E-03
  92 F= -.23222769E+04 E0= -.23222769E+04  d E =-.130938E-02  mag=     2.0000
       N       E                     dE             d eps       ncg     rms          rms(c)
DAV:   1    -0.230189114443E+04    0.34591E-01   -0.39931E+00  4424   0.196E+00    0.495E-01
RMM:   2    -0.230192877493E+04   -0.37631E-01   -0.38331E-01  5785   0.358E-01    0.551E-01
RMM:   3    -0.230193067031E+04   -0.18954E-02   -0.40112E-02  5613   0.116E-01    0.457E-01
RMM:   4    -0.230192906427E+04    0.16060E-02   -0.46156E-03  5464   0.295E-02    0.154E-01
RMM:   5    -0.230192877946E+04    0.28481E-03   -0.77347E-04  4653   0.184E-02    0.786E-02
RMM:   6    -0.230192876516E+04    0.14303E-04   -0.35486E-04  4716   0.144E-02    0.475E-02
RMM:   7    -0.230192874816E+04    0.16995E-04   -0.38764E-05  2944   0.704E-03    0.144E-02
RMM:   8    -0.230192874468E+04    0.34795E-05   -0.14331E-05  2838   0.374E-03
  93 F= -.23222799E+04 E0= -.23222799E+04  d E =-.432013E-02  mag=     2.0000
       N       E                     dE             d eps       ncg     rms          rms(c)
DAV:   1    -0.230177903039E+04    0.14972E+00   -0.15983E+01  4424   0.392E+00    0.101E+00
RMM:   2    -0.230193567472E+04   -0.15664E+00   -0.15684E+00  5837   0.720E-01    0.124E+00
RMM:   3    -0.230193708517E+04   -0.14104E-02   -0.16111E-01  5643   0.239E-01    0.829E-01
RMM:   4    -0.230193172171E+04    0.53635E-02   -0.18017E-02  5515   0.578E-02    0.306E-01
RMM:   5    -0.230193055295E+04    0.11688E-02   -0.32404E-03  4783   0.376E-02    0.149E-01
RMM:   6    -0.230193051323E+04    0.39715E-04   -0.13538E-03  5036   0.280E-02    0.839E-02
RMM:   7    -0.230193046241E+04    0.50826E-04   -0.15426E-04  4145   0.122E-02    0.296E-02
RMM:   8    -0.230193044637E+04    0.16033E-04   -0.50803E-05  2887   0.524E-03    0.143E-02
RMM:   9    -0.230193044682E+04   -0.45117E-06   -0.14675E-05  2845   0.370E-03
  94 F= -.23222816E+04 E0= -.23222816E+04  d E =-.597828E-02  mag=     2.0000
       N       E                     dE             d eps       ncg     rms          rms(c)
DAV:   1    -0.230191731624E+04    0.13130E-01   -0.14144E+00  4424   0.116E+00    0.286E-01
RMM:   2    -0.230192980709E+04   -0.12491E-01   -0.13254E-01  5795   0.211E-01    0.203E-01
RMM:   3    -0.230193137027E+04   -0.15632E-02   -0.14178E-02  5427   0.722E-02    0.298E-01
RMM:   4    -0.230193068295E+04    0.68732E-03   -0.16158E-03  4706   0.177E-02    0.914E-02
RMM:   5    -0.230193058406E+04    0.98893E-04   -0.32051E-04  4164   0.119E-02    0.455E-02
RMM:   6    -0.230193057711E+04    0.69476E-05   -0.10621E-04  3787   0.904E-03    0.207E-02
RMM:   7    -0.230193057593E+04    0.11741E-05   -0.14064E-05  2845   0.518E-03
  95 F= -.23222817E+04 E0= -.23222817E+04  d E =-.612581E-02  mag=     2.0000
       N       E                     dE             d eps       ncg     rms          rms(c)
DAV:   1    -0.230192569499E+04    0.48821E-02   -0.70810E-01  4464   0.816E-01    0.201E-01
RMM:   2    -0.230193209481E+04   -0.63998E-02   -0.67058E-02  5799   0.148E-01    0.169E-01
RMM:   3    -0.230193274967E+04   -0.65486E-03   -0.71145E-03  5284   0.502E-02    0.199E-01
RMM:   4    -0.230193243930E+04    0.31037E-03   -0.80817E-04  3770   0.125E-02    0.666E-02
RMM:   5    -0.230193238840E+04    0.50901E-04   -0.14775E-04  3407   0.858E-03    0.353E-02
RMM:   6    -0.230193238397E+04    0.44303E-05   -0.68131E-05  3329   0.722E-03
  96 F= -.23222835E+04 E0= -.23222835E+04  d E =-.183919E-02  mag=     2.0000
       N       E                     dE             d eps       ncg     rms          rms(c)
DAV:   1    -0.230187626870E+04    0.56120E-01   -0.63655E+00  4424   0.245E+00    0.621E-01
RMM:   2    -0.230193558561E+04   -0.59317E-01   -0.61292E-01  5793   0.446E-01    0.599E-01
RMM:   3    -0.230193996772E+04   -0.43821E-02   -0.65562E-02  5619   0.148E-01    0.575E-01
RMM:   4    -0.230193739757E+04    0.25701E-02   -0.74271E-03  5667   0.366E-02    0.200E-01
RMM:   5    -0.230193698376E+04    0.41382E-03   -0.13410E-03  4687   0.220E-02    0.111E-01
RMM:   6    -0.230193693321E+04    0.50544E-04   -0.63178E-04  5033   0.175E-02    0.625E-02
RMM:   7    -0.230193690419E+04    0.29026E-04   -0.70181E-05  3223   0.888E-03    0.183E-02
RMM:   8    -0.230193689937E+04    0.48172E-05   -0.20704E-05  2856   0.403E-03
  97 F= -.23222881E+04 E0= -.23222881E+04  d E =-.643753E-02  mag=     2.0000
       N       E                     dE             d eps       ncg     rms          rms(c)
DAV:   1    -0.230169673894E+04    0.24017E+00   -0.25469E+01  4456   0.489E+00    0.127E+00
RMM:   2    -0.230194455169E+04   -0.24781E+00   -0.25172E+00  5869   0.897E-01    0.138E+00
RMM:   3    -0.230195206369E+04   -0.75120E-02   -0.26184E-01  5676   0.298E-01    0.103E+00
RMM:   4    -0.230194346069E+04    0.86030E-02   -0.28897E-02  5737   0.717E-02    0.397E-01
RMM:   5    -0.230194175890E+04    0.17018E-02   -0.54122E-03  4714   0.447E-02    0.209E-01
RMM:   6    -0.230194160094E+04    0.15797E-03   -0.22424E-03  5161   0.338E-02    0.110E-01
RMM:   7    -0.230194151671E+04    0.84228E-04   -0.27943E-04  4791   0.166E-02    0.376E-02
RMM:   8    -0.230194149743E+04    0.19274E-04   -0.74594E-05  2990   0.567E-03    0.219E-02
RMM:   9    -0.230194149659E+04    0.84229E-06   -0.23491E-05  2834   0.439E-03
  98 F= -.23222929E+04 E0= -.23222929E+04  d E =-.111700E-01  mag=     2.0000
       N       E                     dE             d eps       ncg     rms          rms(c)
DAV:   1    -0.230190686413E+04    0.34633E-01   -0.41607E+00  4456   0.195E+00    0.508E-01
RMM:   2    -0.230194517506E+04   -0.38311E-01   -0.40157E-01  5862   0.357E-01    0.395E-01
RMM:   3    -0.230194907780E+04   -0.39027E-02   -0.44217E-02  5635   0.122E-01    0.449E-01
RMM:   4    -0.230194750647E+04    0.15713E-02   -0.49444E-03  5711   0.296E-02    0.173E-01
RMM:   5    -0.230194722958E+04    0.27688E-03   -0.94346E-04  4556   0.177E-02    0.964E-02
RMM:   6    -0.230194717861E+04    0.50974E-04   -0.42877E-04  4849   0.141E-02    0.501E-02
RMM:   7    -0.230194716172E+04    0.16889E-04   -0.52194E-05  2961   0.810E-03    0.147E-02
RMM:   8    -0.230194716031E+04    0.14050E-05   -0.15399E-05  2860   0.359E-03
  99 F= -.23222986E+04 E0= -.23222986E+04  d E =-.571589E-02  mag=     2.0000
       N       E                     dE             d eps       ncg     rms          rms(c)
DAV:   1    -0.230158477326E+04    0.36239E+00   -0.37359E+01  4456   0.585E+00    0.158E+00
RMM:   2    -0.230195290918E+04   -0.36814E+00   -0.37660E+00  5899   0.109E+00    0.154E+00
RMM:   3    -0.230196832659E+04   -0.15417E-01   -0.40251E-01  5731   0.363E-01    0.121E+00
RMM:   4    -0.230195642058E+04    0.11906E-01   -0.42886E-02  5822   0.879E-02    0.509E-01
RMM:   5    -0.230195402410E+04    0.23965E-02   -0.88468E-03  4721   0.543E-02    0.280E-01
RMM:   6    -0.230195363309E+04    0.39101E-03   -0.33964E-03  5226   0.398E-02    0.138E-01
RMM:   7    -0.230195350758E+04    0.12551E-03   -0.50788E-04  5030   0.218E-02    0.462E-02
RMM:   8    -0.230195349158E+04    0.16002E-04   -0.11482E-04  3223   0.673E-03    0.300E-02
RMM:   9    -0.230195349184E+04   -0.26450E-06   -0.36672E-05  2840   0.543E-03
 100 F= -.23223051E+04 E0= -.23223051E+04  d E =-.122122E-01  mag=     2.0000
       N       E                     dE             d eps       ncg     rms          rms(c)
DAV:   1    -0.230186799373E+04    0.85498E-01   -0.91133E+00  4456   0.286E+00    0.771E-01
RMM:   2    -0.230195673674E+04   -0.88743E-01   -0.92314E-01  5938   0.534E-01    0.620E-01
RMM:   3    -0.230196492098E+04   -0.81842E-02   -0.10194E-01  5752   0.181E-01    0.636E-01
RMM:   4    -0.230196167440E+04    0.32466E-02   -0.11027E-02  5989   0.440E-02    0.266E-01
RMM:   5    -0.230196104650E+04    0.62790E-03   -0.21831E-03  4725   0.255E-02    0.145E-01
RMM:   6    -0.230196093512E+04    0.11138E-03   -0.97156E-04  5109   0.196E-02    0.704E-02
RMM:   7    -0.230196090526E+04    0.29858E-04   -0.12924E-04  3624   0.112E-02    0.229E-02
RMM:   8    -0.230196090289E+04    0.23696E-05   -0.34095E-05  2876   0.427E-03
 101 F= -.23223125E+04 E0= -.23223125E+04  d E =-.739613E-02  mag=     2.0000
       N       E                     dE             d eps       ncg     rms          rms(c)
DAV:   1    -0.230189271085E+04    0.68194E-01   -0.70835E+00  4460   0.252E+00    0.679E-01
RMM:   2    -0.230196085469E+04   -0.68144E-01   -0.71393E-01  5921   0.469E-01    0.493E-01
RMM:   3    -0.230196759615E+04   -0.67415E-02   -0.78493E-02  5725   0.159E-01    0.531E-01
RMM:   4    -0.230196547428E+04    0.21219E-02   -0.84109E-03  5941   0.384E-02    0.247E-01
RMM:   5    -0.230196495404E+04    0.52024E-03   -0.17948E-03  4700   0.226E-02    0.131E-01
RMM:   6    -0.230196485616E+04    0.97879E-04   -0.76318E-04  5037   0.173E-02    0.609E-02
RMM:   7    -0.230196483241E+04    0.23747E-04   -0.94648E-05  3256   0.996E-03    0.202E-02
RMM:   8    -0.230196482996E+04    0.24502E-05   -0.25031E-05  2857   0.412E-03
 102 F= -.23223164E+04 E0= -.23223164E+04  d E =-.113364E-01  mag=     2.0000
       N       E                     dE             d eps       ncg     rms          rms(c)
DAV:   1    -0.230167300683E+04    0.29183E+00   -0.28304E+01  4456   0.504E+00    0.138E+00
RMM:   2    -0.230195262949E+04   -0.27962E+00   -0.29087E+00  5968   0.949E-01    0.111E+00
RMM:   3    -0.230197461124E+04   -0.21982E-01   -0.31668E-01  5788   0.316E-01    0.103E+00
RMM:   4    -0.230196629766E+04    0.83136E-02   -0.33264E-02  6031   0.773E-02    0.504E-01
RMM:   5    -0.230196426347E+04    0.20342E-02   -0.77456E-03  4782   0.453E-02    0.268E-01
RMM:   6    -0.230196382543E+04    0.43804E-03   -0.30763E-03  5244   0.343E-02    0.124E-01
RMM:   7    -0.230196373256E+04    0.92861E-04   -0.43145E-04  4794   0.196E-02    0.472E-02
RMM:   8    -0.230196371941E+04    0.13153E-04   -0.10044E-04  3043   0.601E-03    0.337E-02
RMM:   9    -0.230196371356E+04    0.58493E-05   -0.36239E-05  2831   0.479E-03
 103 F= -.23223154E+04 E0= -.23223154E+04  d E =-.103559E-01  mag=     2.0000
       N       E                     dE             d eps       ncg     rms          rms(c)
DAV:   1    -0.230185671881E+04    0.10700E+00   -0.10792E+01  4456   0.310E+00    0.827E-01
RMM:   2    -0.230195791487E+04   -0.10120E+00   -0.10734E+00  5923   0.567E-01    0.488E-01
RMM:   3    -0.230196727578E+04   -0.93609E-02   -0.11573E-01  5563   0.195E-01    0.436E-01
RMM:   4    -0.230196757350E+04   -0.29772E-03   -0.12777E-02  5935   0.454E-02    0.394E-01
RMM:   5    -0.230196631656E+04    0.12569E-02   -0.31527E-03  5269   0.280E-02    0.198E-01
RMM:   6    -0.230196597781E+04    0.33875E-03   -0.96453E-04  5109   0.189E-02    0.618E-02
RMM:   7    -0.230196595713E+04    0.20678E-04   -0.12828E-04  3703   0.106E-02    0.306E-02
RMM:   8    -0.230196595691E+04    0.22090E-06   -0.37022E-05  2845   0.522E-03
 104 F= -.23223176E+04 E0= -.23223176E+04  d E =-.124957E-01  mag=     2.0000
       N       E                     dE             d eps       ncg     rms          rms(c)
DAV:   1    -0.230192597007E+04    0.39987E-01   -0.45934E+00  4392   0.203E+00    0.612E-01
RMM:   2    -0.230197943269E+04   -0.53463E-01   -0.53547E-01  5973   0.404E-01    0.658E-01
RMM:   3    -0.230198178440E+04   -0.23517E-02   -0.57466E-02  5802   0.136E-01    0.503E-01
RMM:   4    -0.230197946031E+04    0.23241E-02   -0.61922E-03  5647   0.347E-02    0.183E-01
RMM:   5    -0.230197904180E+04    0.41850E-03   -0.14034E-03  4845   0.214E-02    0.850E-02
RMM:   6    -0.230197902635E+04    0.15457E-04   -0.39113E-04  4678   0.147E-02    0.483E-02
RMM:   7    -0.230197900843E+04    0.17914E-04   -0.60152E-05  3111   0.764E-03    0.185E-02
RMM:   8    -0.230197900337E+04    0.50667E-05   -0.18136E-05  2829   0.427E-03
 105 F= -.23223306E+04 E0= -.23223306E+04  d E =-.130408E-01  mag=     2.0000
[...]
 346 F= -.23226478E+04 E0= -.23226478E+04  d E =-.103305E-04  mag=     2.0000
       N       E                     dE             d eps       ncg     rms          rms(c)
DAV:   1    -0.230233189574E+04   -0.36410E-05   -0.31616E-04  4120   0.185E-02    0.846E-03
RMM:   2    -0.230233190131E+04   -0.55664E-05   -0.16629E-05  2343   0.425E-03
 347 F= -.23226478E+04 E0= -.23226478E+04  d E =-.155792E-04  mag=     2.0000
       N       E                     dE             d eps       ncg     rms          rms(c)
DAV:   1    -0.230233189462E+04    0.11245E-05   -0.12360E-04  4368   0.127E-02    0.230E-03
RMM:   2    -0.230233189496E+04   -0.33967E-06   -0.38346E-06  2260   0.238E-03
 348 F= -.23226478E+04 E0= -.23226478E+04  d E =-.103442E-04  mag=     2.0000
       N       E                     dE             d eps       ncg     rms          rms(c)
DAV:   1    -0.230233189548E+04   -0.86366E-06   -0.30123E-05  3376   0.571E-03    0.239E-03
RMM:   2    -0.230233189595E+04   -0.46578E-06   -0.15125E-06  2135   0.151E-03
 349 F= -.23226478E+04 E0= -.23226478E+04  d E =-.107757E-04  mag=     2.0000
       N       E                     dE             d eps       ncg     rms          rms(c)
DAV:   1    -0.230233189586E+04   -0.37975E-06   -0.10804E-03  4232   0.332E-02    0.615E-03
RMM:   2    -0.230233189791E+04   -0.20509E-05   -0.22830E-05  2472   0.539E-03
 350 F= -.23226478E+04 E0= -.23226478E+04  d E =-.687703E-05  mag=     2.0000
       N       E                     dE             d eps       ncg     rms          rms(c)
DAV:   1    -0.230233189704E+04   -0.11727E-05   -0.57836E-04  4208   0.248E-02    0.667E-03
RMM:   2    -0.230233189993E+04   -0.28958E-05   -0.17743E-05  2573   0.546E-03
 351 F= -.23226478E+04 E0= -.23226478E+04  d E =-.124767E-04  mag=     2.0000
       N       E                     dE             d eps       ncg     rms          rms(c)
DAV:   1    -0.230233189059E+04    0.64453E-05   -0.23302E-03  4404   0.494E-02    0.103E-02
RMM:   2    -0.230233189524E+04   -0.46492E-05   -0.55111E-05  3308   0.944E-03
 352 F= -.23226478E+04 E0= -.23226478E+04  d E =-.149607E-04  mag=     2.0000
       N       E                     dE             d eps       ncg     rms          rms(c)
DAV:   1    -0.230233189414E+04   -0.35493E-05   -0.20341E-03  4412   0.465E-02    0.128E-02
RMM:   2    -0.230233190432E+04   -0.10180E-04   -0.65348E-05  3408   0.938E-03    0.249E-02
RMM:   3    -0.230233189816E+04    0.61575E-05   -0.11462E-05  2530   0.496E-03
 353 F= -.23226478E+04 E0= -.23226478E+04  d E =-.126381E-04  mag=     2.0000
       N       E                     dE             d eps       ncg     rms          rms(c)
DAV:   1    -0.230233187927E+04    0.25049E-04   -0.58589E-03  4392   0.777E-02    0.151E-02
RMM:   2    -0.230233189148E+04   -0.12209E-04   -0.14326E-04  4220   0.125E-02    0.839E-03
RMM:   3    -0.230233189064E+04    0.84107E-06   -0.10001E-05  2731   0.567E-03
 354 F= -.23226478E+04 E0= -.23226478E+04  d E =-.216680E-04  mag=     2.0000
       N       E                     dE             d eps       ncg     rms          rms(c)
DAV:   1    -0.230233188781E+04    0.36679E-05   -0.27413E-03  4448   0.535E-02    0.119E-02
RMM:   2    -0.230233189583E+04   -0.80224E-05   -0.75182E-05  3642   0.903E-03
 355 F= -.23226479E+04 E0= -.23226479E+04  d E =-.144368E-04  mag=     2.0000
       N       E                     dE             d eps       ncg     rms          rms(c)
DAV:   1    -0.230233188994E+04   -0.21335E-05   -0.12853E-03  4600   0.373E-02    0.110E-02
RMM:   2    -0.230233189489E+04   -0.49492E-05   -0.42476E-05  3094   0.766E-03
 356 F= -.23226479E+04 E0= -.23226479E+04  d E =-.197854E-04  mag=     2.0000
       N       E                     dE             d eps       ncg     rms          rms(c)
DAV:   1    -0.230233187101E+04    0.18938E-04   -0.51227E-03  4434   0.734E-02    0.155E-02
RMM:   2    -0.230233188324E+04   -0.12237E-04   -0.14824E-04  4335   0.138E-02    0.102E-02
RMM:   3    -0.230233188352E+04   -0.27649E-06   -0.13295E-05  2795   0.556E-03
 357 F= -.23226479E+04 E0= -.23226479E+04  d E =-.210005E-04  mag=     2.0000
       N       E                     dE             d eps       ncg     rms          rms(c)
DAV:   1    -0.230233188510E+04   -0.18579E-05   -0.19726E-03  4448   0.452E-02    0.966E-03
RMM:   2    -0.230233189021E+04   -0.51137E-05   -0.50193E-05  3340   0.805E-03
 358 F= -.23226479E+04 E0= -.23226479E+04  d E =-.114593E-04  mag=     2.0000
       N       E                     dE             d eps       ncg     rms          rms(c)
DAV:   1    -0.230233187698E+04    0.81161E-05   -0.82529E-03  4424   0.921E-02    0.179E-02
RMM:   2    -0.230233189963E+04   -0.22645E-04   -0.23123E-04  4690   0.165E-02    0.210E-02
RMM:   3    -0.230233189618E+04    0.34543E-05   -0.21721E-05  2839   0.635E-03
 359 F= -.23226479E+04 E0= -.23226479E+04  d E =-.271237E-04  mag=     2.0000
       N       E                     dE             d eps       ncg     rms          rms(c)
DAV:   1    -0.230233180738E+04    0.92245E-04   -0.32866E-02  4456   0.183E-01    0.319E-02
RMM:   2    -0.230233188305E+04   -0.75663E-04   -0.84913E-04  5602   0.278E-02    0.212E-02
RMM:   3    -0.230233187792E+04    0.51267E-05   -0.45733E-05  3059   0.915E-03
 360 F= -.23226479E+04 E0= -.23226479E+04  d E =-.283721E-04  mag=     2.0000
       N       E                     dE             d eps       ncg     rms          rms(c)
DAV:   1    -0.230233186710E+04    0.15947E-04   -0.74231E-03  4392   0.875E-02    0.188E-02
RMM:   2    -0.230233189483E+04   -0.27733E-04   -0.22555E-04  4776   0.144E-02    0.275E-02
RMM:   3    -0.230233188725E+04    0.75829E-05   -0.22083E-05  2665   0.610E-03
 361 F= -.23226479E+04 E0= -.23226479E+04  d E =-.285171E-04  mag=     2.0000
       N       E                     dE             d eps       ncg     rms          rms(c)
DAV:   1    -0.230233188835E+04    0.64801E-05   -0.46185E-03  4408   0.686E-02    0.124E-02
RMM:   2    -0.230233189905E+04   -0.10701E-04   -0.11705E-04  3942   0.110E-02    0.493E-03
RMM:   3    -0.230233189875E+04    0.30862E-06   -0.76135E-06  2455   0.532E-03
 362 F= -.23226479E+04 E0= -.23226479E+04  d E =-.174566E-04  mag=     2.0000
       N       E                     dE             d eps       ncg     rms          rms(c)
DAV:   1    -0.230233189254E+04    0.65191E-05   -0.73955E-03  4456   0.865E-02    0.153E-02
RMM:   2    -0.230233190991E+04   -0.17374E-04   -0.18075E-04  4379   0.131E-02    0.137E-02
RMM:   3    -0.230233190898E+04    0.92716E-06   -0.13420E-05  2770   0.565E-03
 363 F= -.23226479E+04 E0= -.23226479E+04  d E =-.352699E-04  mag=     2.0000
       N       E                     dE             d eps       ncg     rms          rms(c)
DAV:   1    -0.230233184477E+04    0.65143E-04   -0.29732E-02  4456   0.173E-01    0.306E-02
RMM:   2    -0.230233190876E+04   -0.63998E-04   -0.72710E-04  5232   0.251E-02    0.182E-02
RMM:   3    -0.230233190358E+04    0.51832E-05   -0.36913E-05  3054   0.968E-03
 364 F= -.23226479E+04 E0= -.23226479E+04  d E =-.451557E-04  mag=     2.0000
       N       E                     dE             d eps       ncg     rms          rms(c)
DAV:   1    -0.230233190169E+04    0.70773E-05   -0.88174E-03  4528   0.950E-02    0.217E-02
RMM:   2    -0.230233192330E+04   -0.21616E-04   -0.21931E-04  4630   0.146E-02    0.260E-02
RMM:   3    -0.230233191747E+04    0.58305E-05   -0.22231E-05  2847   0.670E-03
 365 F= -.23226480E+04 E0= -.23226480E+04  d E =-.270019E-04  mag=     2.0000
       N       E                     dE             d eps       ncg     rms          rms(c)
DAV:   1    -0.230233187969E+04    0.43616E-04   -0.17869E-02  4456   0.135E-01    0.262E-02
RMM:   2    -0.230233191545E+04   -0.35759E-04   -0.42291E-04  5095   0.197E-02    0.156E-02
RMM:   3    -0.230233191276E+04    0.26900E-05   -0.26229E-05  2920   0.824E-03
 366 F= -.23226480E+04 E0= -.23226480E+04  d E =-.410168E-04  mag=     2.0000
       N       E                     dE             d eps       ncg     rms          rms(c)
DAV:   1    -0.230233189883E+04    0.16614E-04   -0.23068E-03  4776   0.490E-02    0.145E-02
RMM:   2    -0.230233190649E+04   -0.76552E-05   -0.60513E-05  3319   0.802E-03
 367 F= -.23226480E+04 E0= -.23226480E+04  d E =-.415362E-04  mag=     2.0000
       N       E                     dE             d eps       ncg     rms          rms(c)
DAV:   1    -0.230233190410E+04   -0.52647E-05   -0.80893E-04  4432   0.299E-02    0.982E-03
RMM:   2    -0.230233190906E+04   -0.49682E-05   -0.27137E-05  2903   0.610E-03
 368 F= -.23226480E+04 E0= -.23226480E+04  d E =-.401784E-04  mag=     2.0000
       N       E                     dE             d eps       ncg     rms          rms(c)
DAV:   1    -0.230233190295E+04    0.11454E-05   -0.18864E-04  4768   0.151E-02    0.491E-03
RMM:   2    -0.230233190436E+04   -0.14071E-05   -0.62214E-06  2361   0.290E-03
 369 F= -.23226480E+04 E0= -.23226480E+04  d E =-.374389E-04  mag=     2.0000
       N       E                     dE             d eps       ncg     rms          rms(c)
DAV:   1    -0.230233190454E+04   -0.15932E-05   -0.59863E-05  4096   0.838E-03    0.224E-03
RMM:   2    -0.230233190484E+04   -0.29328E-06   -0.18333E-06  2220   0.170E-03
 370 F= -.23226480E+04 E0= -.23226480E+04  d E =-.368243E-04  mag=     2.0000
       N       E                     dE             d eps       ncg     rms          rms(c)
DAV:   1    -0.230233188598E+04    0.18565E-04   -0.15947E-02  4424   0.127E-01    0.236E-02
RMM:   2    -0.230233191997E+04   -0.33990E-04   -0.37862E-04  4938   0.185E-02    0.110E-02
RMM:   3    -0.230233191703E+04    0.29381E-05   -0.23655E-05  2888   0.945E-03
 371 F= -.23226480E+04 E0= -.23226480E+04  d E =-.310266E-04  mag=     2.0000
       N       E                     dE             d eps       ncg     rms          rms(c)
DAV:   1    -0.230233186868E+04    0.51289E-04   -0.18010E-02  4456   0.135E-01    0.252E-02
RMM:   2    -0.230233190672E+04   -0.38042E-04   -0.41840E-04  4992   0.190E-02    0.157E-02
RMM:   3    -0.230233190604E+04    0.67797E-06   -0.26051E-05  2926   0.825E-03
 372 F= -.23226480E+04 E0= -.23226480E+04  d E =-.403121E-04  mag=     2.0000
       N       E                     dE             d eps       ncg     rms          rms(c)
DAV:   1    -0.230233188880E+04    0.17917E-04   -0.17997E-02  4456   0.136E-01    0.278E-02
RMM:   2    -0.230233192493E+04   -0.36126E-04   -0.43612E-04  5097   0.200E-02    0.147E-02
RMM:   3    -0.230233191989E+04    0.50360E-05   -0.23086E-05  2933   0.857E-03
 373 F= -.23226480E+04 E0= -.23226480E+04  d E =-.269399E-04  mag=     2.0000
       N       E                     dE             d eps       ncg     rms          rms(c)
DAV:   1    -0.230233188759E+04    0.37339E-04   -0.12422E-02  4456   0.113E-01    0.293E-02
RMM:   2    -0.230233194112E+04   -0.53532E-04   -0.34921E-04  5072   0.173E-02    0.561E-02
RMM:   3    -0.230233190769E+04    0.33433E-04   -0.49046E-05  2897   0.850E-03    0.142E-02
RMM:   4    -0.230233190454E+04    0.31480E-05   -0.63127E-06  2792   0.270E-03
 374 F= -.23226480E+04 E0= -.23226480E+04  d E =-.225881E-04  mag=     2.0000
       N       E                     dE             d eps       ncg     rms          rms(c)
DAV:   1    -0.230233188033E+04    0.27363E-04   -0.16796E-02  4456   0.130E-01    0.240E-02
RMM:   2    -0.230233191441E+04   -0.34082E-04   -0.38009E-04  4964   0.184E-02    0.113E-02
RMM:   3    -0.230233191154E+04    0.28645E-05   -0.21263E-05  2900   0.816E-03
 375 F= -.23226481E+04 E0= -.23226481E+04  d E =-.265104E-04  mag=     2.0000
       N       E                     dE             d eps       ncg     rms          rms(c)
DAV:   1    -0.230233188378E+04    0.30625E-04   -0.10181E-02  4592   0.101E-01    0.218E-02
RMM:   2    -0.230233190764E+04   -0.23854E-04   -0.24236E-04  4714   0.148E-02    0.255E-02
RMM:   3    -0.230233190183E+04    0.58115E-05   -0.22506E-05  2859   0.662E-03
 376 F= -.23226481E+04 E0= -.23226481E+04  d E =-.319513E-04  mag=     2.0000
       N       E                     dE             d eps       ncg     rms          rms(c)
DAV:   1    -0.230233189495E+04    0.12687E-04   -0.11376E-02  4424   0.109E-01    0.268E-02
RMM:   2    -0.230233191698E+04   -0.22025E-04   -0.27812E-04  4883   0.168E-02    0.132E-02
RMM:   3    -0.230233191396E+04    0.30144E-05   -0.15913E-05  2885   0.730E-03
 377 F= -.23226481E+04 E0= -.23226481E+04  d E =-.397666E-04  mag=     2.0000
       N       E                     dE             d eps       ncg     rms          rms(c)
DAV:   1    -0.230233189244E+04    0.24533E-04   -0.40757E-03  4632   0.657E-02    0.198E-02
RMM:   2    -0.230233190561E+04   -0.13163E-04   -0.10816E-04  3993   0.107E-02    0.271E-02
RMM:   3    -0.230233189896E+04    0.66459E-05   -0.17346E-05  2828   0.564E-03
 378 F= -.23226481E+04 E0= -.23226481E+04  d E =-.414013E-04  mag=     2.0000
       N       E                     dE             d eps       ncg     rms          rms(c)
DAV:   1    -0.230233189637E+04    0.92387E-05   -0.68023E-03  4432   0.835E-02    0.206E-02
RMM:   2    -0.230233190859E+04   -0.12226E-04   -0.15272E-04  4241   0.128E-02    0.101E-02
RMM:   3    -0.230233190757E+04    0.10223E-05   -0.98251E-06  2809   0.605E-03
 379 F= -.23226481E+04 E0= -.23226481E+04  d E =-.186660E-04  mag=     2.0000
       N       E                     dE             d eps       ncg     rms          rms(c)
DAV:   1    -0.230233190261E+04    0.59837E-05   -0.72049E-04  4976   0.278E-02    0.106E-02
RMM:   2    -0.230233190666E+04   -0.40449E-05   -0.21256E-05  2855   0.504E-03
 380 F= -.23226481E+04 E0= -.23226481E+04  d E =-.210553E-04  mag=     2.0000
       N       E                     dE             d eps       ncg     rms          rms(c)
DAV:   1    -0.230233190480E+04   -0.21876E-05   -0.62919E-03  4464   0.822E-02    0.219E-02
RMM:   2    -0.230233191760E+04   -0.12801E-04   -0.16283E-04  4459   0.144E-02    0.100E-02
RMM:   3    -0.230233191557E+04    0.20316E-05   -0.11335E-05  2791   0.650E-03
 381 F= -.23226481E+04 E0= -.23226481E+04  d E =-.214838E-04  mag=     2.0000
       N       E                     dE             d eps       ncg     rms          rms(c)
DAV:   1    -0.230233191273E+04    0.48736E-05   -0.22583E-04  4992   0.159E-02    0.781E-03
RMM:   2    -0.230233191753E+04   -0.48020E-05   -0.13901E-05  2535   0.369E-03
 382 F= -.23226482E+04 E0= -.23226482E+04  d E =-.260022E-04  mag=     2.0000
       N       E                     dE             d eps       ncg     rms          rms(c)
DAV:   1    -0.230233191407E+04   -0.13404E-05   -0.78837E-05  4312   0.106E-02    0.253E-03
RMM:   2    -0.230233191428E+04   -0.20937E-06   -0.26808E-06  2270   0.197E-03
 383 F= -.23226481E+04 E0= -.23226481E+04  d E =-.213641E-04  mag=     2.0000
       N       E                     dE             d eps       ncg     rms          rms(c)
DAV:   1    -0.230233190743E+04    0.66411E-05   -0.33594E-03  4384   0.598E-02    0.165E-02
RMM:   2    -0.230233191356E+04   -0.61372E-05   -0.77429E-05  3745   0.967E-03
 384 F= -.23226482E+04 E0= -.23226482E+04  d E =-.179870E-04  mag=     2.0000
       N       E                     dE             d eps       ncg     rms          rms(c)
DAV:   1    -0.230233191375E+04   -0.63225E-05   -0.14681E-05  3912   0.761E-03    0.613E-03
RMM:   2    -0.230233191553E+04   -0.17848E-05   -0.59560E-06  2294   0.303E-03
 385 F= -.23226482E+04 E0= -.23226482E+04  d E =-.191373E-04  mag=     2.0000
       N       E                     dE             d eps       ncg     rms          rms(c)
DAV:   1    -0.230233191294E+04    0.81115E-06   -0.43351E-06  2416   0.380E-03    0.200E-03
RMM:   2    -0.230233191303E+04   -0.92870E-07   -0.69848E-07  2006   0.135E-03
 386 F= -.23226482E+04 E0= -.23226482E+04  d E =-.173257E-04  mag=     2.0000
       N       E                     dE             d eps       ncg     rms          rms(c)
DAV:   1    -0.230233189626E+04    0.16681E-04   -0.23426E-03  4368   0.502E-02    0.136E-02
RMM:   2    -0.230233190093E+04   -0.46766E-05   -0.55869E-05  3476   0.792E-03
 387 F= -.23226482E+04 E0= -.23226482E+04  d E =-.118848E-04  mag=     2.0000
       N       E                     dE             d eps       ncg     rms          rms(c)
DAV:   1    -0.230233190452E+04   -0.82632E-05   -0.55656E-05  4704   0.972E-03    0.119E-02
RMM:   2    -0.230233191634E+04   -0.11817E-04   -0.23292E-05  2575   0.298E-03    0.346E-02
RMM:   3    -0.230233190317E+04    0.13164E-04   -0.79147E-06  2140   0.246E-03    0.162E-03
RMM:   4    -0.230233190313E+04    0.41793E-07   -0.76135E-07  1319   0.758E-04
 388 F= -.23226482E+04 E0= -.23226482E+04  d E =-.107616E-04  mag=     2.0000
       N       E                     dE             d eps       ncg     rms          rms(c)
DAV:   1    -0.230233188858E+04    0.14586E-04   -0.19432E-03  4368   0.462E-02    0.121E-02
RMM:   2    -0.230233189302E+04   -0.44385E-05   -0.50903E-05  3454   0.717E-03
 389 F= -.23226482E+04 E0= -.23226482E+04  d E =-.867720E-05  mag=     2.0000
       N       E                     dE             d eps       ncg     rms          rms(c)
DAV:   1    -0.230233189615E+04   -0.75651E-05   -0.47846E-05  4624   0.881E-03    0.110E-02
RMM:   2    -0.230233190635E+04   -0.10201E-04   -0.19890E-05  2506   0.268E-03    0.322E-02
RMM:   3    -0.230233189498E+04    0.11368E-04   -0.71603E-06  2111   0.230E-03    0.142E-03
RMM:   4    -0.230233189494E+04    0.42666E-07   -0.69327E-07  1144   0.715E-04
 390 F= -.23226482E+04 E0= -.23226482E+04  d E =-.792712E-05  mag=     2.0000
       N       E                     dE             d eps       ncg     rms          rms(c)
DAV:   1    -0.230233189391E+04    0.10687E-05   -0.18321E-03  4336   0.448E-02    0.111E-02
RMM:   2    -0.230233189812E+04   -0.42043E-05   -0.46582E-05  3305   0.688E-03
 391 F= -.23226482E+04 E0= -.23226482E+04  d E =-.844753E-05  mag=     2.0000
       N       E                     dE             d eps       ncg     rms          rms(c)
DAV:   1    -0.230233189906E+04   -0.51498E-05   -0.35866E-05  4032   0.785E-03    0.102E-02
RMM:   2    -0.230233190774E+04   -0.86770E-05   -0.17010E-05  2465   0.265E-03
 392 F= -.23226482E+04 E0= -.23226482E+04  d E =-.174116E-04  mag=     2.0000
       N       E                     dE             d eps       ncg     rms          rms(c)
DAV:   1    -0.230233189501E+04    0.40508E-05   -0.14215E-03  4368   0.406E-02    0.911E-03
RMM:   2    -0.230233189814E+04   -0.31289E-05   -0.36381E-05  3041   0.713E-03
 393 F= -.23226482E+04 E0= -.23226482E+04  d E =0.171810E-05  mag=     2.0000
       N       E                     dE             d eps       ncg     rms          rms(c)
DAV:   1    -0.230233189787E+04   -0.28570E-05   -0.58822E-05  4816   0.976E-03    0.921E-03
RMM:   2    -0.230233190453E+04   -0.66611E-05   -0.14949E-05  2415   0.286E-03
 394 F= -.23226482E+04 E0= -.23226482E+04  d E =-.618773E-05  mag=     2.0000
       N       E                     dE             d eps       ncg     rms          rms(c)
DAV:   1    -0.230233188729E+04    0.10583E-04   -0.12119E-03  4376   0.374E-02    0.827E-03
RMM:   2    -0.230233188981E+04   -0.25225E-05   -0.30399E-05  2811   0.658E-03
 395 F= -.23226482E+04 E0= -.23226482E+04  d E =-.375082E-06  mag=     2.0000
       N       E                     dE             d eps       ncg     rms          rms(c)
DAV:   1    -0.230233188851E+04   -0.12259E-05   -0.34062E-05  4328   0.791E-03    0.832E-03
RMM:   2    -0.230233189372E+04   -0.52055E-05   -0.11775E-05  2343   0.290E-03
 396 F= -.23226482E+04 E0= -.23226482E+04  d E =-.668333E-05  mag=     2.0000
       N       E                     dE             d eps       ncg     rms          rms(c)
DAV:   1    -0.230233187388E+04    0.14631E-04   -0.89757E-04  4376   0.322E-02    0.748E-03
RMM:   2    -0.230233187581E+04   -0.19311E-05   -0.23255E-05  2526   0.580E-03
 397 F= -.23226482E+04 E0= -.23226482E+04  d E =-.166116E-05  mag=     2.0000
