       N       E                     dE             d eps       ncg     rms          rms(c)
DAV:   1     0.131658382083E+05    0.13166E+05   -0.84499E+05  4536   0.144E+03
DAV:   2    -0.101182683992E+04   -0.14178E+05   -0.13547E+05  4944   0.331E+02
DAV:   3    -0.249289318314E+04   -0.14811E+04   -0.14625E+04  5552   0.116E+02
DAV:   4    -0.253871768341E+04   -0.45825E+02   -0.45558E+02  6704   0.293E+01
DAV:   5    -0.253970172578E+04   -0.98404E+00   -0.98182E+00  6432   0.359E+00    0.171E+02
RMM:   6    -0.149966747778E+04    0.10400E+04   -0.19748E+03  4479   0.383E+01    0.724E+01
RMM:   7    -0.167075412684E+04   -0.17109E+03   -0.30131E+02  5124   0.142E+01    0.469E+01
RMM:   8    -0.172770719043E+04   -0.56953E+02   -0.30711E+01  5467   0.644E+00    0.347E+01
RMM:   9    -0.187924228116E+04   -0.15154E+03   -0.78825E+01  5038   0.882E+00    0.314E+01
RMM:  10    -0.195480140506E+04   -0.75559E+02   -0.36905E+01  5056   0.568E+00    0.212E+01
RMM:  11    -0.203915266532E+04   -0.84351E+02   -0.34015E+01  5005   0.484E+00    0.189E+01
RMM:  12    -0.210939117726E+04   -0.70239E+02   -0.25861E+01  5002   0.417E+00    0.128E+01
RMM:  13    -0.224834949992E+04   -0.13896E+03   -0.11337E+02  4483   0.761E+00    0.947E+00
RMM:  14    -0.231103634530E+04   -0.62687E+02   -0.57213E+01  4541   0.552E+00    0.839E+00
RMM:  15    -0.232282990986E+04   -0.11794E+02   -0.13690E+01  5122   0.318E+00    0.585E+00
RMM:  16    -0.233263064155E+04   -0.98007E+01   -0.95248E+00  4475   0.188E+00    0.347E+00
RMM:  17    -0.233700070544E+04   -0.43701E+01   -0.36598E+00  4981   0.150E+00    0.605E+00
RMM:  18    -0.233729479123E+04   -0.29409E+00   -0.57066E-01  5597   0.560E-01    0.507E+00
RMM:  19    -0.233759533317E+04   -0.30054E+00   -0.22896E-01  4855   0.246E-01    0.409E+00
RMM:  20    -0.233823309368E+04   -0.63776E+00   -0.67269E-01  4491   0.463E-01    0.178E+00
RMM:  21    -0.233849476280E+04   -0.26167E+00   -0.23443E-01  4585   0.325E-01    0.794E-01
RMM:  22    -0.233862492443E+04   -0.13016E+00   -0.75236E-02  4878   0.185E-01    0.555E-01
RMM:  23    -0.233875858657E+04   -0.13366E+00   -0.34551E-02  4696   0.115E-01    0.351E-01
RMM:  24    -0.233888369431E+04   -0.12511E+00   -0.26104E-02  4518   0.101E-01    0.250E-01
RMM:  25    -0.233893137321E+04   -0.47679E-01   -0.96055E-03  4808   0.691E-02    0.178E-01
RMM:  26    -0.233897639725E+04   -0.45024E-01   -0.77203E-03  4504   0.565E-02    0.123E-01
RMM:  27    -0.233899641436E+04   -0.20017E-01   -0.46634E-03  4706   0.505E-02    0.587E-02
RMM:  28    -0.233900159188E+04   -0.51775E-02   -0.15110E-03  4888   0.268E-02    0.363E-02
RMM:  29    -0.233900439062E+04   -0.27987E-02   -0.49230E-04  4228   0.142E-02    0.212E-02
RMM:  30    -0.233900548031E+04   -0.10897E-02   -0.17727E-04  3984   0.993E-03    0.978E-03
RMM:  31    -0.233900585109E+04   -0.37078E-03   -0.66620E-05  3776   0.620E-03    0.517E-03
RMM:  32    -0.233900598846E+04   -0.13737E-03   -0.28216E-05  3220   0.455E-03    0.282E-03
RMM:  33    -0.233900602415E+04   -0.35686E-04   -0.92181E-06  2891   0.345E-03    0.165E-03
RMM:  34    -0.233900603880E+04   -0.14658E-04   -0.47922E-06  2771   0.251E-03    0.102E-03
RMM:  35    -0.233900604779E+04   -0.89840E-05   -0.28786E-06  2490   0.200E-03
   1 F= -.23605642E+04 E0= -.23605642E+04  d E =-.236056E+04  mag=     4.0000
       N       E                     dE             d eps       ncg     rms          rms(c)
DAV:   1    -0.233908579936E+04   -0.79761E-01   -0.99519E+00  5112   0.258E+00    0.708E-01
RMM:   2    -0.233910124620E+04   -0.15447E-01   -0.19622E-01  4501   0.349E-01    0.352E-01
RMM:   3    -0.233909954741E+04    0.16988E-02   -0.10119E-02  4479   0.150E-01    0.290E-01
RMM:   4    -0.233910062168E+04   -0.10743E-02   -0.52818E-03  4810   0.469E-02    0.427E-01
RMM:   5    -0.233909860527E+04    0.20164E-02   -0.33080E-03  5469   0.441E-02    0.822E-02
RMM:   6    -0.233909848544E+04    0.11983E-03   -0.23970E-04  4560   0.138E-02    0.425E-02
RMM:   7    -0.233909844566E+04    0.39775E-04   -0.16764E-04  4047   0.853E-03    0.346E-02
RMM:   8    -0.233909844027E+04    0.53948E-05   -0.37343E-05  2942   0.599E-03
   2 F= -.23606576E+04 E0= -.23606576E+04  d E =-.934004E-01  mag=     4.0000
       N       E                     dE             d eps       ncg     rms          rms(c)
DAV:   1    -0.233914028526E+04   -0.41840E-01   -0.31577E+00  4752   0.154E+00    0.383E-01
RMM:   2    -0.233914503282E+04   -0.47476E-02   -0.61163E-02  4505   0.202E-01    0.188E-01
RMM:   3    -0.233914449489E+04    0.53793E-03   -0.30229E-03  4488   0.848E-02    0.152E-01
RMM:   4    -0.233914480102E+04   -0.30613E-03   -0.14138E-03  4642   0.258E-02    0.230E-01
RMM:   5    -0.233914420935E+04    0.59167E-03   -0.10951E-03  5336   0.257E-02    0.479E-02
RMM:   6    -0.233914417152E+04    0.37833E-04   -0.69729E-05  3545   0.885E-03    0.284E-02
RMM:   7    -0.233914415848E+04    0.13043E-04   -0.53254E-05  3418   0.573E-03    0.214E-02
RMM:   8    -0.233914415589E+04    0.25839E-05   -0.17779E-05  2925   0.455E-03
   3 F= -.23607040E+04 E0= -.23607040E+04  d E =-.463531E-01  mag=     4.0000
       N       E                     dE             d eps       ncg     rms          rms(c)
DAV:   1    -0.233919578961E+04   -0.51631E-01   -0.26550E+01  4592   0.441E+00    0.963E-01
RMM:   2    -0.233923686367E+04   -0.41074E-01   -0.49496E-01  4492   0.565E-01    0.495E-01
RMM:   3    -0.233923298729E+04    0.38764E-02   -0.19793E-02  4479   0.218E-01    0.364E-01
RMM:   4    -0.233923657060E+04   -0.35833E-02   -0.11350E-02  4703   0.737E-02    0.690E-01
RMM:   5    -0.233923142773E+04    0.51429E-02   -0.70148E-03  5516   0.651E-02    0.125E-01
RMM:   6    -0.233923117510E+04    0.25262E-03   -0.53759E-04  5013   0.208E-02    0.626E-02
RMM:   7    -0.233923108946E+04    0.85641E-04   -0.33499E-04  4375   0.131E-02    0.314E-02
RMM:   8    -0.233923111323E+04   -0.23771E-04   -0.47333E-05  3005   0.797E-03    0.466E-02
RMM:   9    -0.233923109051E+04    0.22719E-04   -0.24839E-05  2920   0.392E-03    0.136E-02
RMM:  10    -0.233923108839E+04    0.21181E-05   -0.43679E-06  2856   0.276E-03
   4 F= -.23607928E+04 E0= -.23607928E+04  d E =-.888350E-01  mag=     4.0000
       N       E                     dE             d eps       ncg     rms          rms(c)
DAV:   1    -0.233924837462E+04   -0.17284E-01   -0.30500E+00  4672   0.150E+00    0.361E-01
RMM:   2    -0.233925283925E+04   -0.44646E-02   -0.56326E-02  4506   0.191E-01    0.180E-01
RMM:   3    -0.233925230719E+04    0.53206E-03   -0.24591E-03  4456   0.801E-02    0.132E-01
RMM:   4    -0.233925272032E+04   -0.41313E-03   -0.14378E-03  4609   0.261E-02    0.240E-01
RMM:   5    -0.233925208955E+04    0.63077E-03   -0.93380E-04  5377   0.243E-02    0.477E-02
RMM:   6    -0.233925205594E+04    0.33608E-04   -0.66031E-05  3383   0.743E-03    0.250E-02
RMM:   7    -0.233925204487E+04    0.11073E-04   -0.28397E-05  3061   0.462E-03    0.201E-02
RMM:   8    -0.233925204197E+04    0.29045E-05   -0.20128E-05  2926   0.429E-03
   5 F= -.23608143E+04 E0= -.23608143E+04  d E =-.215032E-01  mag=     4.0000
       N       E                     dE             d eps       ncg     rms          rms(c)
DAV:   1    -0.233926531788E+04   -0.13273E-01   -0.99961E-01  4624   0.863E-01    0.207E-01
RMM:   2    -0.233926668996E+04   -0.13721E-02   -0.17379E-02  4648   0.109E-01    0.120E-01
RMM:   3    -0.233926660887E+04    0.81084E-04   -0.10218E-03  4455   0.499E-02    0.120E-01
RMM:   4    -0.233926655662E+04    0.52260E-04   -0.43840E-04  4686   0.137E-02    0.102E-01
RMM:   5    -0.233926644093E+04    0.11569E-03   -0.29553E-04  4527   0.131E-02    0.200E-02
RMM:   6    -0.233926643975E+04    0.11735E-05   -0.27664E-05  2986   0.705E-03
   6 F= -.23608290E+04 E0= -.23608290E+04  d E =-.146262E-01  mag=     4.0000
       N       E                     dE             d eps       ncg     rms          rms(c)
DAV:   1    -0.233928255727E+04   -0.16116E-01   -0.12107E+00  4592   0.947E-01    0.260E-01
RMM:   2    -0.233928418428E+04   -0.16270E-02   -0.20988E-02  4699   0.122E-01    0.146E-01
RMM:   3    -0.233928407086E+04    0.11342E-03   -0.13692E-03  4501   0.582E-02    0.142E-01
RMM:   4    -0.233928403733E+04    0.33531E-04   -0.64599E-04  5005   0.162E-02    0.132E-01
RMM:   5    -0.233928390677E+04    0.13056E-03   -0.39210E-04  4544   0.143E-02    0.701E-02
RMM:   6    -0.233928385081E+04    0.55964E-04   -0.68861E-05  3017   0.768E-03    0.207E-02
RMM:   7    -0.233928385040E+04    0.40668E-06   -0.14452E-05  2909   0.317E-03
   7 F= -.23608465E+04 E0= -.23608465E+04  d E =-.175849E-01  mag=     4.0000
       N       E                     dE             d eps       ncg     rms          rms(c)
DAV:   1    -0.233930116559E+04   -0.17315E-01   -0.12846E+00  4592   0.947E-01    0.269E-01
RMM:   2    -0.233930273444E+04   -0.15688E-02   -0.20936E-02  4704   0.121E-01    0.159E-01
RMM:   3    -0.233930265272E+04    0.81716E-04   -0.15468E-03  4518   0.629E-02    0.156E-01
RMM:   4    -0.233930262058E+04    0.32136E-04   -0.73083E-04  4969   0.171E-02    0.144E-01
RMM:   5    -0.233930242005E+04    0.20053E-03   -0.32416E-04  4354   0.139E-02    0.430E-02
RMM:   6    -0.233930240239E+04    0.17664E-04   -0.38458E-05  2987   0.657E-03    0.229E-02
RMM:   7    -0.233930239576E+04    0.66242E-05   -0.74901E-06  2879   0.292E-03
   8 F= -.23608652E+04 E0= -.23608652E+04  d E =-.186314E-01  mag=     4.0000
       N       E                     dE             d eps       ncg     rms          rms(c)
DAV:   1    -0.233931705854E+04   -0.14656E-01   -0.95937E-01  4592   0.796E-01    0.228E-01
RMM:   2    -0.233931814195E+04   -0.10834E-02   -0.14941E-02  4642   0.101E-01    0.139E-01
RMM:   3    -0.233931808604E+04    0.55918E-04   -0.11954E-03  4488   0.530E-02    0.135E-01
RMM:   4    -0.233931803297E+04    0.53067E-04   -0.57252E-04  4736   0.148E-02    0.115E-01
RMM:   5    -0.233931793192E+04    0.10105E-03   -0.23321E-04  3897   0.114E-02    0.573E-02
RMM:   6    -0.233931788972E+04    0.42196E-04   -0.45579E-05  2948   0.579E-03    0.125E-02
RMM:   7    -0.233931789075E+04   -0.10313E-05   -0.91790E-06  2876   0.287E-03
   9 F= -.23608807E+04 E0= -.23608807E+04  d E =-.154955E-01  mag=     4.0000
       N       E                     dE             d eps       ncg     rms          rms(c)
DAV:   1    -0.233933389368E+04   -0.16004E-01   -0.12610E+00  4576   0.908E-01    0.263E-01
RMM:   2    -0.233933528673E+04   -0.13931E-02   -0.19406E-02  4674   0.115E-01    0.157E-01
RMM:   3    -0.233933516617E+04    0.12056E-03   -0.14707E-03  4475   0.592E-02    0.143E-01
RMM:   4    -0.233933519676E+04   -0.30584E-04   -0.74280E-04  4925   0.166E-02    0.148E-01
RMM:   5    -0.233933496833E+04    0.22843E-03   -0.27768E-04  4061   0.126E-02    0.374E-02
RMM:   6    -0.233933495684E+04    0.11485E-04   -0.35773E-05  2955   0.572E-03    0.229E-02
RMM:   7    -0.233933495174E+04    0.51080E-05   -0.76231E-06  2857   0.277E-03
  10 F= -.23608977E+04 E0= -.23608977E+04  d E =-.170356E-01  mag=     4.0000
       N       E                     dE             d eps       ncg     rms          rms(c)
DAV:   1    -0.233935446514E+04   -0.19508E-01   -0.20536E+00  4560   0.114E+00    0.329E-01
RMM:   2    -0.233935662352E+04   -0.21584E-02   -0.30850E-02  4639   0.143E-01    0.201E-01
RMM:   3    -0.233935643061E+04    0.19291E-03   -0.24158E-03  4508   0.735E-02    0.180E-01
RMM:   4    -0.233935645767E+04   -0.27065E-04   -0.11994E-03  5174   0.210E-02    0.182E-01
RMM:   5    -0.233935612108E+04    0.33659E-03   -0.42177E-04  4330   0.148E-02    0.578E-02
RMM:   6    -0.233935608409E+04    0.36996E-04   -0.57237E-05  2998   0.636E-03    0.220E-02
RMM:   7    -0.233935608329E+04    0.79522E-06   -0.14417E-05  2909   0.326E-03
  11 F= -.23609187E+04 E0= -.23609187E+04  d E =-.210165E-01  mag=     4.0000
       N       E                     dE             d eps       ncg     rms          rms(c)
DAV:   1    -0.233937738585E+04   -0.21302E-01   -0.27138E+00  4560   0.129E+00    0.377E-01
RMM:   2    -0.233938018404E+04   -0.27982E-02   -0.40595E-02  4651   0.162E-01    0.231E-01
RMM:   3    -0.233937988953E+04    0.29450E-03   -0.31530E-03  4522   0.826E-02    0.201E-01
RMM:   4    -0.233938000854E+04   -0.11900E-03   -0.16350E-03  5136   0.240E-02    0.219E-01
RMM:   5    -0.233937950723E+04    0.50130E-03   -0.52998E-04  4486   0.169E-02    0.571E-02
RMM:   6    -0.233937947444E+04    0.32790E-04   -0.72555E-05  3027   0.648E-03    0.287E-02
RMM:   7    -0.233937946901E+04    0.54366E-05   -0.17339E-05  2935   0.368E-03
  12 F= -.23609419E+04 E0= -.23609419E+04  d E =-.232145E-01  mag=     4.0000
       N       E                     dE             d eps       ncg     rms          rms(c)
DAV:   1    -0.233940498555E+04   -0.25511E-01   -0.47548E+00  4524   0.170E+00    0.501E-01
RMM:   2    -0.233940979261E+04   -0.48071E-02   -0.70641E-02  4630   0.213E-01    0.306E-01
RMM:   3    -0.233940946930E+04    0.32331E-03   -0.56522E-03  4546   0.109E-01    0.297E-01
RMM:   4    -0.233940931423E+04    0.15507E-03   -0.28292E-03  5325   0.315E-02    0.268E-01
RMM:   5    -0.233940858461E+04    0.72961E-03   -0.87104E-04  4632   0.211E-02    0.806E-02
RMM:   6    -0.233940852104E+04    0.63574E-04   -0.11793E-04  3225   0.862E-03    0.373E-02
RMM:   7    -0.233940850613E+04    0.14903E-04   -0.19859E-05  2947   0.422E-03    0.165E-02
RMM:   8    -0.233940850788E+04   -0.17443E-05   -0.17318E-05  2922   0.311E-03
  13 F= -.23609707E+04 E0= -.23609707E+04  d E =-.287725E-01  mag=     4.0000
       N       E                     dE             d eps       ncg     rms          rms(c)
DAV:   1    -0.233941552547E+04   -0.70193E-02   -0.30862E-01  4672   0.442E-01    0.133E-01
RMM:   2    -0.233941583227E+04   -0.30679E-03   -0.47213E-03  4751   0.572E-02    0.780E-02
RMM:   3    -0.233941579536E+04    0.36908E-04   -0.37912E-04  4350   0.284E-02    0.683E-02
RMM:   4    -0.233941580475E+04   -0.93920E-05   -0.19519E-04  3666   0.865E-03    0.723E-02
RMM:   5    -0.233941574598E+04    0.58767E-04   -0.63638E-05  3139   0.680E-03    0.176E-02
RMM:   6    -0.233941574380E+04    0.21876E-05   -0.11646E-05  2905   0.389E-03
  14 F= -.23609779E+04 E0= -.23609779E+04  d E =-.717387E-02  mag=     4.0000
       N       E                     dE             d eps       ncg     rms          rms(c)
DAV:   1    -0.233941795786E+04   -0.22119E-02   -0.41598E-02  4800   0.184E-01    0.537E-02
RMM:   2    -0.233941802142E+04   -0.63552E-04   -0.79154E-04  4887   0.255E-02    0.377E-02
RMM:   3    -0.233941804064E+04   -0.19227E-04   -0.95680E-05  3377   0.123E-02    0.599E-02
RMM:   4    -0.233941800150E+04    0.39147E-04   -0.34309E-05  2954   0.446E-03    0.176E-02
RMM:   5    -0.233941800526E+04   -0.37651E-05   -0.18964E-05  2913   0.326E-03
  15 F= -.23609801E+04 E0= -.23609801E+04  d E =-.222786E-02  mag=     4.0000
       N       E                     dE             d eps       ncg     rms          rms(c)
DAV:   1    -0.233942650247E+04   -0.85010E-02   -0.48367E-01  4560   0.553E-01    0.157E-01
RMM:   2    -0.233942698375E+04   -0.48128E-03   -0.71768E-03  4769   0.693E-02    0.946E-02
RMM:   3    -0.233942694209E+04    0.41664E-04   -0.55910E-04  4438   0.348E-02    0.848E-02
RMM:   4    -0.233942695558E+04   -0.13492E-04   -0.30499E-04  3841   0.102E-02    0.886E-02
RMM:   5    -0.233942688269E+04    0.72887E-04   -0.10378E-04  3234   0.778E-03    0.414E-02
RMM:   6    -0.233942686382E+04    0.18872E-04   -0.24260E-05  2917   0.446E-03    0.120E-02
RMM:   7    -0.233942686399E+04   -0.17007E-06   -0.54124E-06  2794   0.224E-03
  16 F= -.23609889E+04 E0= -.23609889E+04  d E =-.874352E-02  mag=     4.0000
       N       E                     dE             d eps       ncg     rms          rms(c)
DAV:   1    -0.233944568848E+04   -0.18825E-01   -0.28854E+00  4520   0.133E+00    0.384E-01
RMM:   2    -0.233944852133E+04   -0.28329E-02   -0.42588E-02  4571   0.165E-01    0.232E-01
RMM:   3    -0.233944817558E+04    0.34575E-03   -0.30164E-03  4530   0.782E-02    0.199E-01
RMM:   4    -0.233944842036E+04   -0.24479E-03   -0.17836E-03  4908   0.241E-02    0.242E-01
RMM:   5    -0.233944778376E+04    0.63660E-03   -0.55271E-04  4435   0.173E-02    0.444E-02
RMM:   6    -0.233944776638E+04    0.17384E-04   -0.69249E-05  3019   0.652E-03    0.273E-02
RMM:   7    -0.233944775958E+04    0.67963E-05   -0.17333E-05  2951   0.386E-03
  17 F= -.23610095E+04 E0= -.23610095E+04  d E =-.206409E-01  mag=     4.0000
       N       E                     dE             d eps       ncg     rms          rms(c)
DAV:   1    -0.233945913043E+04   -0.11364E-01   -0.98110E-01  4524   0.760E-01    0.230E-01
RMM:   2    -0.233946003611E+04   -0.90568E-03   -0.13974E-02  4636   0.942E-02    0.140E-01
RMM:   3    -0.233945997164E+04    0.64475E-04   -0.12029E-03  4468   0.483E-02    0.129E-01
RMM:   4    -0.233945996088E+04    0.10757E-04   -0.61338E-04  4500   0.145E-02    0.120E-01
RMM:   5    -0.233945981482E+04    0.14606E-03   -0.17705E-04  3553   0.100E-02    0.455E-02
RMM:   6    -0.233945979150E+04    0.23321E-04   -0.32419E-05  2946   0.496E-03    0.156E-02
RMM:   7    -0.233945979192E+04   -0.42425E-06   -0.90271E-06  2883   0.267E-03
  18 F= -.23610214E+04 E0= -.23610214E+04  d E =-.118730E-01  mag=     4.0000
       N       E                     dE             d eps       ncg     rms          rms(c)
DAV:   1    -0.233947137734E+04   -0.11586E-01   -0.99410E-01  4524   0.741E-01    0.235E-01
RMM:   2    -0.233947224254E+04   -0.86520E-03   -0.13821E-02  4628   0.908E-02    0.143E-01
RMM:   3    -0.233947210881E+04    0.13373E-03   -0.10928E-03  4444   0.430E-02    0.112E-01
RMM:   4    -0.233947219655E+04   -0.87744E-04   -0.65453E-04  4327   0.141E-02    0.137E-01
RMM:   5    -0.233947200660E+04    0.18995E-03   -0.18406E-04  3411   0.982E-03    0.479E-02
RMM:   6    -0.233947197908E+04    0.27521E-04   -0.35546E-05  2936   0.458E-03    0.151E-02
RMM:   7    -0.233947197934E+04   -0.25485E-06   -0.91977E-06  2880   0.258E-03
  19 F= -.23610334E+04 E0= -.23610334E+04  d E =-.120369E-01  mag=     4.0000
       N       E                     dE             d eps       ncg     rms          rms(c)
DAV:   1    -0.233948387593E+04   -0.11897E-01   -0.10058E+00  4524   0.717E-01    0.240E-01
RMM:   2    -0.233948466755E+04   -0.79162E-03   -0.13373E-02  4626   0.871E-02    0.147E-01
RMM:   3    -0.233948446470E+04    0.20285E-03   -0.11040E-03  4428   0.425E-02    0.860E-02
RMM:   4    -0.233948467931E+04   -0.21461E-03   -0.65000E-04  4230   0.140E-02    0.155E-01
RMM:   5    -0.233948441571E+04    0.26360E-03   -0.17830E-04  3245   0.989E-03    0.374E-02
RMM:   6    -0.233948440057E+04    0.15145E-04   -0.31404E-05  2922   0.378E-03    0.147E-02
RMM:   7    -0.233948439891E+04    0.16551E-05   -0.72486E-06  2877   0.242E-03
  20 F= -.23610456E+04 E0= -.23610456E+04  d E =-.122347E-01  mag=     4.0000
       N       E                     dE             d eps       ncg     rms          rms(c)
DAV:   1    -0.233949904898E+04   -0.14648E-01   -0.16112E+00  4520   0.891E-01    0.306E-01
RMM:   2    -0.233950024508E+04   -0.11961E-02   -0.20853E-02  4610   0.107E-01    0.189E-01
RMM:   3    -0.233950023313E+04    0.11944E-04   -0.20180E-03  4545   0.516E-02    0.195E-01
RMM:   4    -0.233950000724E+04    0.22589E-03   -0.10323E-03  4833   0.176E-02    0.129E-01
RMM:   5    -0.233949981171E+04    0.19554E-03   -0.16742E-04  3538   0.103E-02    0.224E-02
RMM:   6    -0.233949981354E+04   -0.18358E-05   -0.31742E-05  2973   0.450E-03
  21 F= -.23610608E+04 E0= -.23610608E+04  d E =-.152122E-01  mag=     4.0000
       N       E                     dE             d eps       ncg     rms          rms(c)
DAV:   1    -0.233950655696E+04   -0.67453E-02   -0.31584E-01  4560   0.379E-01    0.140E-01
RMM:   2    -0.233950679729E+04   -0.24033E-03   -0.39936E-03  5015   0.466E-02    0.930E-02
RMM:   3    -0.233950699879E+04   -0.20150E-03   -0.55881E-04  3977   0.220E-02    0.165E-01
RMM:   4    -0.233950671711E+04    0.28168E-03   -0.32656E-04  3472   0.947E-03    0.431E-02
RMM:   5    -0.233950673029E+04   -0.13184E-04   -0.92408E-05  3047   0.618E-03    0.523E-02
RMM:   6    -0.233950669650E+04    0.33796E-04   -0.34612E-05  2884   0.377E-03    0.104E-02
RMM:   7    -0.233950669656E+04   -0.59619E-07   -0.65206E-06  2726   0.202E-03
  22 F= -.23610677E+04 E0= -.23610677E+04  d E =-.682205E-02  mag=     4.0000
       N       E                     dE             d eps       ncg     rms          rms(c)
DAV:   1    -0.233951323611E+04   -0.65396E-02   -0.29845E-01  4556   0.363E-01    0.135E-01
RMM:   2    -0.233951342472E+04   -0.18861E-03   -0.35908E-03  4719   0.434E-02    0.839E-02
RMM:   3    -0.233951346626E+04   -0.41533E-04   -0.40789E-04  3857   0.220E-02    0.104E-01
RMM:   4    -0.233951337112E+04    0.95136E-04   -0.20695E-04  3421   0.816E-03    0.489E-02
RMM:   5    -0.233951335257E+04    0.18552E-04   -0.33107E-05  2997   0.518E-03    0.274E-02
RMM:   6    -0.233951334430E+04    0.82707E-05   -0.10177E-05  2814   0.258E-03
  23 F= -.23610742E+04 E0= -.23610742E+04  d E =-.656012E-02  mag=     4.0000
       N       E                     dE             d eps       ncg     rms          rms(c)
DAV:   1    -0.233955447402E+04   -0.41121E-01   -0.19035E+01  4520   0.292E+00    0.106E+00
RMM:   2    -0.233956755729E+04   -0.13083E-01   -0.23991E-01  4606   0.346E-01    0.657E-01
RMM:   3    -0.233956761448E+04   -0.57192E-04   -0.23331E-02  4600   0.160E-01    0.689E-01
RMM:   4    -0.233956457219E+04    0.30423E-02   -0.12621E-02  5510   0.584E-02    0.445E-01
RMM:   5    -0.233956296679E+04    0.16054E-02   -0.24609E-03  4957   0.329E-02    0.237E-01
RMM:   6    -0.233956231024E+04    0.65654E-03   -0.63997E-04  4027   0.130E-02    0.658E-02
RMM:   7    -0.233956231301E+04   -0.27623E-05   -0.16531E-04  3160   0.735E-03    0.722E-02
RMM:   8    -0.233956225175E+04    0.61259E-04   -0.81761E-05  3086   0.558E-03    0.188E-02
RMM:   9    -0.233956224877E+04    0.29787E-05   -0.15298E-05  2973   0.375E-03
  24 F= -.23611225E+04 E0= -.23611225E+04  d E =-.482513E-01  mag=     4.0000
       N       E                     dE             d eps       ncg     rms          rms(c)
DAV:   1    -0.233956636362E+04   -0.41119E-02   -0.14459E-01  4768   0.261E-01    0.997E-02
RMM:   2    -0.233956648659E+04   -0.12297E-03   -0.21048E-03  5212   0.350E-02    0.660E-02
RMM:   3    -0.233956659785E+04   -0.11125E-03   -0.29868E-04  3865   0.171E-02    0.122E-01
RMM:   4    -0.233956643374E+04    0.16410E-03   -0.15946E-04  3177   0.742E-03    0.255E-02
RMM:   5    -0.233956643638E+04   -0.26332E-05   -0.38684E-05  2984   0.454E-03
  25 F= -.23611266E+04 E0= -.23611266E+04  d E =-.408917E-02  mag=     4.0000
       N       E                     dE             d eps       ncg     rms          rms(c)
DAV:   1    -0.233956704973E+04   -0.61598E-03   -0.76182E-03  5056   0.852E-02    0.276E-02
RMM:   2    -0.233956706505E+04   -0.15320E-04   -0.18432E-04  4629   0.146E-02    0.180E-02
RMM:   3    -0.233956707073E+04   -0.56829E-05   -0.25201E-05  2989   0.680E-03
  26 F= -.23611272E+04 E0= -.23611272E+04  d E =-.638852E-03  mag=     4.0000
       N       E                     dE             d eps       ncg     rms          rms(c)
DAV:   1    -0.233956944024E+04   -0.23752E-02   -0.55869E-02  4592   0.172E-01    0.617E-02
RMM:   2    -0.233956950747E+04   -0.67226E-04   -0.96982E-04  5504   0.241E-02    0.458E-02
RMM:   3    -0.233956953349E+04   -0.26026E-04   -0.12354E-04  3263   0.944E-03    0.662E-02
RMM:   4    -0.233956948673E+04    0.46762E-04   -0.58890E-05  3039   0.509E-03    0.241E-02
RMM:   5    -0.233956948818E+04   -0.14537E-05   -0.24856E-05  2789   0.341E-03
  27 F= -.23611296E+04 E0= -.23611296E+04  d E =-.239984E-02  mag=     4.0000
       N       E                     dE             d eps       ncg     rms          rms(c)
DAV:   1    -0.233957538248E+04   -0.58958E-02   -0.36345E-01  4520   0.427E-01    0.145E-01
RMM:   2    -0.233957573463E+04   -0.35214E-03   -0.52251E-03  5171   0.539E-02    0.105E-01
RMM:   3    -0.233957592542E+04   -0.19079E-03   -0.69517E-04  4157   0.247E-02    0.165E-01
RMM:   4    -0.233957560666E+04    0.31876E-03   -0.33608E-04  3762   0.102E-02    0.293E-02
RMM:   5    -0.233957559847E+04    0.81877E-05   -0.40370E-05  3086   0.535E-03
  28 F= -.23611357E+04 E0= -.23611357E+04  d E =-.605026E-02  mag=     4.0000
       N       E                     dE             d eps       ncg     rms          rms(c)
DAV:   1    -0.233958057555E+04   -0.49689E-02   -0.26516E-01  4524   0.362E-01    0.124E-01
RMM:   2    -0.233958083269E+04   -0.25714E-03   -0.36982E-03  5225   0.458E-02    0.937E-02
RMM:   3    -0.233958098893E+04   -0.15624E-03   -0.53436E-04  3864   0.215E-02    0.152E-01
RMM:   4    -0.233958074370E+04    0.24523E-03   -0.24188E-04  3383   0.892E-03    0.356E-02
RMM:   5    -0.233958077043E+04   -0.26728E-04   -0.86141E-05  2960   0.577E-03    0.575E-02
RMM:   6    -0.233958073250E+04    0.37925E-04   -0.31016E-05  2836   0.372E-03    0.141E-02
RMM:   7    -0.233958073070E+04    0.18072E-05   -0.62119E-06  2628   0.212E-03
  29 F= -.23611407E+04 E0= -.23611407E+04  d E =-.508212E-02  mag=     4.0000
       N       E                     dE             d eps       ncg     rms          rms(c)
DAV:   1    -0.233959158333E+04   -0.10851E-01   -0.14116E+00  4520   0.819E-01    0.286E-01
RMM:   2    -0.233959272916E+04   -0.11458E-02   -0.19200E-02  4879   0.101E-01    0.186E-01
RMM:   3    -0.233959326935E+04   -0.54019E-03   -0.23052E-03  4629   0.479E-02    0.286E-01
RMM:   4    -0.233959237084E+04    0.89851E-03   -0.11744E-03  4766   0.180E-02    0.832E-02
RMM:   5    -0.233959238220E+04   -0.11365E-04   -0.24802E-04  3412   0.103E-02    0.876E-02
RMM:   6    -0.233959229658E+04    0.85623E-04   -0.92018E-05  3010   0.543E-03    0.229E-02
RMM:   7    -0.233959229662E+04   -0.41298E-07   -0.20219E-05  2868   0.312E-03
  30 F= -.23611522E+04 E0= -.23611522E+04  d E =-.114697E-01  mag=     4.0000
       N       E                     dE             d eps       ncg     rms          rms(c)
DAV:   1    -0.233960161911E+04   -0.93225E-02   -0.10608E+00  4520   0.696E-01    0.250E-01
RMM:   2    -0.233960240344E+04   -0.78433E-03   -0.13746E-02  4847   0.849E-02    0.158E-01
RMM:   3    -0.233960267707E+04   -0.27363E-03   -0.15449E-03  4529   0.407E-02    0.221E-01
RMM:   4    -0.233960219341E+04    0.48366E-03   -0.82651E-04  4294   0.148E-02    0.860E-02
RMM:   5    -0.233960215512E+04    0.38289E-04   -0.14383E-04  3268   0.868E-03    0.635E-02
RMM:   6    -0.233960211206E+04    0.43065E-04   -0.48166E-05  2936   0.437E-03    0.194E-02
RMM:   7    -0.233960211166E+04    0.39327E-06   -0.12176E-05  2829   0.279E-03
  31 F= -.23611619E+04 E0= -.23611619E+04  d E =-.971090E-02  mag=     4.0000
       N       E                     dE             d eps       ncg     rms          rms(c)
DAV:   1    -0.233960487343E+04   -0.27614E-02   -0.88318E-02  4576   0.204E-01    0.749E-02
RMM:   2    -0.233960493943E+04   -0.66002E-04   -0.11416E-03  4850   0.260E-02    0.461E-02
RMM:   3    -0.233960494105E+04   -0.16135E-05   -0.13110E-04  3459   0.138E-02    0.475E-02
RMM:   4    -0.233960492447E+04    0.16578E-04   -0.67381E-05  3083   0.528E-03    0.282E-02
RMM:   5    -0.233960492146E+04    0.30085E-05   -0.17560E-05  2852   0.366E-03
  32 F= -.23611647E+04 E0= -.23611647E+04  d E =-.276780E-02  mag=     4.0000
       N       E                     dE             d eps       ncg     rms          rms(c)
DAV:   1    -0.233962223689E+04   -0.17312E-01   -0.45720E+00  4520   0.143E+00    0.515E-01
RMM:   2    -0.233962563807E+04   -0.34012E-02   -0.59150E-02  4850   0.173E-01    0.333E-01
RMM:   3    -0.233962758080E+04   -0.19427E-02   -0.70898E-03  4717   0.796E-02    0.532E-01
RMM:   4    -0.233962444707E+04    0.31337E-02   -0.39644E-03  5269   0.314E-02    0.139E-01
RMM:   5    -0.233962448151E+04   -0.34438E-04   -0.65057E-04  3908   0.160E-02    0.151E-01
RMM:   6    -0.233962424130E+04    0.24021E-03   -0.23984E-04  3227   0.767E-03    0.349E-02
RMM:   7    -0.233962424199E+04   -0.69302E-06   -0.51064E-05  2949   0.470E-03
  33 F= -.23611838E+04 E0= -.23611838E+04  d E =-.190862E-01  mag=     4.0000
       N       E                     dE             d eps       ncg     rms          rms(c)
DAV:   1    -0.233962915567E+04   -0.49144E-02   -0.32510E-01  4520   0.379E-01    0.140E-01
RMM:   2    -0.233962936856E+04   -0.21290E-03   -0.38753E-03  4858   0.456E-02    0.873E-02
RMM:   3    -0.233962938382E+04   -0.15261E-04   -0.43203E-04  4076   0.230E-02    0.937E-02
RMM:   4    -0.233962932953E+04    0.54295E-04   -0.23047E-04  3378   0.835E-03    0.603E-02
RMM:   5    -0.233962931195E+04    0.17583E-04   -0.62405E-05  2976   0.559E-03    0.433E-02
RMM:   6    -0.233962928792E+04    0.24023E-04   -0.19908E-05  2819   0.304E-03    0.742E-03
RMM:   7    -0.233962928836E+04   -0.43823E-06   -0.39573E-06  2685   0.179E-03
  34 F= -.23611888E+04 E0= -.23611888E+04  d E =-.497779E-02  mag=     4.0000
       N       E                     dE             d eps       ncg     rms          rms(c)
DAV:   1    -0.233962877980E+04    0.50812E-03   -0.80897E-03  4832   0.857E-02    0.244E-02
RMM:   2    -0.233962880087E+04   -0.21071E-04   -0.25357E-04  5052   0.139E-02    0.165E-02
RMM:   3    -0.233962880335E+04   -0.24765E-05   -0.25776E-05  2960   0.670E-03
  35 F= -.23611883E+04 E0= -.23611883E+04  d E =0.480801E-03  mag=     4.0000
       N       E                     dE             d eps       ncg     rms          rms(c)
DAV:   1    -0.233963223138E+04   -0.34305E-02   -0.16920E-01  4560   0.289E-01    0.954E-02
RMM:   2    -0.233963238053E+04   -0.14915E-03   -0.23209E-03  5072   0.357E-02    0.634E-02
RMM:   3    -0.233963241150E+04   -0.30963E-04   -0.26443E-04  3553   0.165E-02    0.843E-02
RMM:   4    -0.233963234431E+04    0.67183E-04   -0.15824E-04  3236   0.688E-03    0.387E-02
RMM:   5    -0.233963235414E+04   -0.98237E-05   -0.55800E-05  2876   0.466E-03
  36 F= -.23611918E+04 E0= -.23611918E+04  d E =-.350574E-02  mag=     4.0000
       N       E                     dE             d eps       ncg     rms          rms(c)
DAV:   1    -0.233963788215E+04   -0.55378E-02   -0.47220E-01  4520   0.479E-01    0.164E-01
RMM:   2    -0.233963823115E+04   -0.34899E-03   -0.59026E-03  4779   0.573E-02    0.105E-01
RMM:   3    -0.233963842729E+04   -0.19614E-03   -0.69245E-04  4108   0.278E-02    0.170E-01
RMM:   4    -0.233963813268E+04    0.29461E-03   -0.41795E-04  3640   0.104E-02    0.510E-02
RMM:   5    -0.233963813954E+04   -0.68658E-05   -0.97181E-05  3123   0.672E-03
  37 F= -.23611975E+04 E0= -.23611975E+04  d E =-.568774E-02  mag=     4.0000
       N       E                     dE             d eps       ncg     rms          rms(c)
DAV:   1    -0.233964280466E+04   -0.46720E-02   -0.35625E-01  4520   0.413E-01    0.143E-01
RMM:   2    -0.233964305879E+04   -0.25413E-03   -0.43485E-03  4894   0.497E-02    0.886E-02
RMM:   3    -0.233964310073E+04   -0.41939E-04   -0.46317E-04  4251   0.252E-02    0.110E-01
RMM:   4    -0.233964300497E+04    0.95760E-04   -0.23247E-04  3394   0.842E-03    0.547E-02
RMM:   5    -0.233964297947E+04    0.25504E-04   -0.40593E-05  3020   0.527E-03    0.273E-02
RMM:   6    -0.233964297135E+04    0.81115E-05   -0.10011E-05  2804   0.282E-03
  38 F= -.23612022E+04 E0= -.23612022E+04  d E =-.475920E-02  mag=     4.0000
       N       E                     dE             d eps       ncg     rms          rms(c)
DAV:   1    -0.233965052061E+04   -0.75411E-02   -0.97780E-01  4520   0.664E-01    0.239E-01
RMM:   2    -0.233965112302E+04   -0.60241E-03   -0.11478E-02  4565   0.769E-02    0.146E-01
RMM:   3    -0.233965091446E+04    0.20856E-03   -0.95008E-04  4278   0.365E-02    0.696E-02
RMM:   4    -0.233965117391E+04   -0.25945E-03   -0.59684E-04  4040   0.132E-02    0.159E-01
RMM:   5    -0.233965088211E+04    0.29180E-03   -0.14942E-04  3204   0.902E-03    0.168E-02
RMM:   6    -0.233965088112E+04    0.99103E-06   -0.17580E-05  2905   0.287E-03
  39 F= -.23612100E+04 E0= -.23612100E+04  d E =-.779500E-02  mag=     4.0000
       N       E                     dE             d eps       ncg     rms          rms(c)
DAV:   1    -0.233965379131E+04   -0.29092E-02   -0.13432E-01  4536   0.236E-01    0.910E-02
RMM:   2    -0.233965387472E+04   -0.83412E-04   -0.15304E-03  4816   0.282E-02    0.587E-02
RMM:   3    -0.233965394781E+04   -0.73087E-04   -0.22867E-04  3612   0.144E-02    0.976E-02
RMM:   4    -0.233965384339E+04    0.10442E-03   -0.11695E-04  3184   0.632E-03    0.229E-02
RMM:   5    -0.233965384795E+04   -0.45554E-05   -0.25123E-05  2839   0.386E-03
  40 F= -.23612129E+04 E0= -.23612129E+04  d E =-.290516E-02  mag=     4.0000
       N       E                     dE             d eps       ncg     rms          rms(c)
DAV:   1    -0.233966331507E+04   -0.94717E-02   -0.16922E+00  4520   0.852E-01    0.314E-01
RMM:   2    -0.233966431638E+04   -0.10013E-02   -0.19493E-02  4587   0.979E-02    0.195E-01
RMM:   3    -0.233966420565E+04    0.11073E-03   -0.18794E-03  4449   0.452E-02    0.172E-01
RMM:   4    -0.233966409275E+04    0.11290E-03   -0.11891E-03  4468   0.171E-02    0.135E-01
RMM:   5    -0.233966401366E+04    0.79094E-04   -0.29824E-04  3374   0.107E-02    0.105E-01
RMM:   6    -0.233966387649E+04    0.13717E-03   -0.90716E-05  2978   0.560E-03    0.139E-02
RMM:   7    -0.233966387799E+04   -0.15066E-05   -0.15811E-05  2887   0.306E-03
  41 F= -.23612228E+04 E0= -.23612228E+04  d E =-.985081E-02  mag=     4.0000
       N       E                     dE             d eps       ncg     rms          rms(c)
DAV:   1    -0.233966619440E+04   -0.23179E-02   -0.89350E-02  4592   0.189E-01    0.763E-02
RMM:   2    -0.233966625319E+04   -0.58796E-04   -0.11433E-03  5326   0.240E-02    0.472E-02
RMM:   3    -0.233966625244E+04    0.75129E-06   -0.12343E-04  3362   0.114E-02    0.465E-02
RMM:   4    -0.233966624140E+04    0.11044E-04   -0.62838E-05  3045   0.509E-03    0.347E-02
RMM:   5    -0.233966623174E+04    0.96522E-05   -0.15921E-05  2805   0.335E-03
  42 F= -.23612251E+04 E0= -.23612251E+04  d E =-.230530E-02  mag=     4.0000
       N       E                     dE             d eps       ncg     rms          rms(c)
DAV:   1    -0.233966600993E+04    0.23147E-03   -0.21834E-03  4984   0.448E-02    0.142E-02
RMM:   2    -0.233966601443E+04   -0.45007E-05   -0.55225E-05  3401   0.773E-03
  43 F= -.23612249E+04 E0= -.23612249E+04  d E =0.215177E-03  mag=     4.0000
       N       E                     dE             d eps       ncg     rms          rms(c)
DAV:   1    -0.233966679595E+04   -0.78602E-03   -0.10324E-02  4560   0.666E-02    0.256E-02
RMM:   2    -0.233966682400E+04   -0.28050E-04   -0.16016E-04  3641   0.108E-02    0.445E-02
RMM:   3    -0.233966680415E+04    0.19852E-04   -0.29491E-05  2971   0.538E-03    0.167E-02
RMM:   4    -0.233966680458E+04   -0.42835E-06   -0.10029E-05  2691   0.285E-03
  44 F= -.23612256E+04 E0= -.23612256E+04  d E =-.776212E-03  mag=     4.0000
       N       E                     dE             d eps       ncg     rms          rms(c)
DAV:   1    -0.233966866816E+04   -0.18640E-02   -0.60164E-02  4528   0.160E-01    0.627E-02
RMM:   2    -0.233966871649E+04   -0.48329E-04   -0.83819E-04  5045   0.208E-02    0.413E-02
RMM:   3    -0.233966874439E+04   -0.27906E-04   -0.11667E-04  3181   0.992E-03    0.639E-02
RMM:   4    -0.233966870165E+04    0.42746E-04   -0.65823E-05  3051   0.495E-03    0.201E-02
RMM:   5    -0.233966870322E+04   -0.15704E-05   -0.18438E-05  2774   0.332E-03
  45 F= -.23612275E+04 E0= -.23612275E+04  d E =-.185798E-02  mag=     4.0000
       N       E                     dE             d eps       ncg     rms          rms(c)
DAV:   1    -0.233966870998E+04   -0.83285E-05   -0.19918E-04  5040   0.169E-02    0.819E-03
RMM:   2    -0.233966871279E+04   -0.28112E-05   -0.21695E-05  2627   0.429E-03
  46 F= -.23612275E+04 E0= -.23612275E+04  d E =-.476610E-05  mag=     4.0000
       N       E                     dE             d eps       ncg     rms          rms(c)
DAV:   1    -0.233967380350E+04   -0.50935E-02   -0.48381E-01  4520   0.441E-01    0.171E-01
RMM:   2    -0.233967412901E+04   -0.32551E-03   -0.60845E-03  5272   0.539E-02    0.110E-01
RMM:   3    -0.233967425305E+04   -0.12404E-03   -0.77434E-04  4075   0.249E-02    0.147E-01
RMM:   4    -0.233967403367E+04    0.21938E-03   -0.47019E-04  3663   0.109E-02    0.641E-02
RMM:   5    -0.233967404311E+04   -0.94394E-05   -0.13498E-04  3042   0.699E-03    0.713E-02
RMM:   6    -0.233967398425E+04    0.58863E-04   -0.41940E-05  2845   0.377E-03    0.730E-03
RMM:   7    -0.233967398398E+04    0.26431E-06   -0.59934E-06  2732   0.202E-03
  47 F= -.23612327E+04 E0= -.23612327E+04  d E =-.518884E-02  mag=     4.0000
       N       E                     dE             d eps       ncg     rms          rms(c)
DAV:   1    -0.233967911390E+04   -0.51297E-02   -0.49993E-01  4520   0.441E-01    0.174E-01
RMM:   2    -0.233967941604E+04   -0.30214E-03   -0.59269E-03  4838   0.517E-02    0.112E-01
RMM:   3    -0.233967957066E+04   -0.15462E-03   -0.80845E-04  4041   0.258E-02    0.156E-01
RMM:   4    -0.233967930498E+04    0.26568E-03   -0.46075E-04  3758   0.108E-02    0.539E-02
RMM:   5    -0.233967931818E+04   -0.13200E-04   -0.12580E-04  3000   0.694E-03    0.640E-02
RMM:   6    -0.233967926966E+04    0.48518E-04   -0.41916E-05  2817   0.369E-03    0.101E-02
RMM:   7    -0.233967927072E+04   -0.10602E-05   -0.74355E-06  2660   0.207E-03
  48 F= -.23612379E+04 E0= -.23612379E+04  d E =-.516993E-02  mag=     4.0000
       N       E                     dE             d eps       ncg     rms          rms(c)
DAV:   1    -0.233967756928E+04    0.17004E-02   -0.56178E-02  4524   0.166E-01    0.589E-02
RMM:   2    -0.233967763500E+04   -0.65723E-04   -0.99345E-04  5353   0.226E-02    0.393E-02
RMM:   3    -0.233967764810E+04   -0.13102E-04   -0.10922E-04  3164   0.984E-03    0.522E-02
RMM:   4    -0.233967762055E+04    0.27552E-04   -0.53926E-05  3021   0.456E-03    0.237E-02
RMM:   5    -0.233967762409E+04   -0.35377E-05   -0.22139E-05  2748   0.316E-03
  49 F= -.23612362E+04 E0= -.23612362E+04  d E =0.162820E-02  mag=     4.0000
       N       E                     dE             d eps       ncg     rms          rms(c)
DAV:   1    -0.233968449997E+04   -0.68794E-02   -0.92523E-01  4520   0.589E-01    0.236E-01
RMM:   2    -0.233968501384E+04   -0.51387E-03   -0.10669E-02  4839   0.681E-02    0.152E-01
RMM:   3    -0.233968552981E+04   -0.51597E-03   -0.14885E-03  4301   0.333E-02    0.262E-01
RMM:   4    -0.233968479069E+04    0.73912E-03   -0.96123E-04  3954   0.142E-02    0.679E-02
RMM:   5    -0.233968481112E+04   -0.20425E-04   -0.23738E-04  3174   0.860E-03    0.777E-02
RMM:   6    -0.233968473631E+04    0.74809E-04   -0.78062E-05  2902   0.457E-03    0.112E-02
RMM:   7    -0.233968473581E+04    0.49437E-06   -0.11156E-05  2767   0.239E-03
  50 F= -.23612432E+04 E0= -.23612432E+04  d E =-.693382E-02  mag=     4.0000
       N       E                     dE             d eps       ncg     rms          rms(c)
DAV:   1    -0.233968698801E+04   -0.22517E-02   -0.10106E-01  4524   0.207E-01    0.794E-02
RMM:   2    -0.233968706537E+04   -0.77353E-04   -0.12985E-03  4950   0.257E-02    0.542E-02
RMM:   3    -0.233968714124E+04   -0.75873E-04   -0.20008E-04  3341   0.131E-02    0.981E-02
RMM:   4    -0.233968703735E+04    0.10389E-03   -0.11023E-04  3117   0.583E-03    0.217E-02
RMM:   5    -0.233968704318E+04   -0.58336E-05   -0.30757E-05  2831   0.376E-03
  51 F= -.23612454E+04 E0= -.23612454E+04  d E =-.223723E-02  mag=     4.0000
       N       E                     dE             d eps       ncg     rms          rms(c)
DAV:   1    -0.233969635596E+04   -0.93186E-02   -0.19465E+00  4520   0.850E-01    0.341E-01
RMM:   2    -0.233969739970E+04   -0.10437E-02   -0.21786E-02  4772   0.965E-02    0.215E-01
RMM:   3    -0.233969794511E+04   -0.54541E-03   -0.26644E-03  4504   0.453E-02    0.308E-01
RMM:   4    -0.233969698862E+04    0.95649E-03   -0.15438E-03  4359   0.183E-02    0.104E-01
RMM:   5    -0.233969694225E+04    0.46371E-04   -0.26925E-04  3372   0.997E-03    0.796E-02
RMM:   6    -0.233969686477E+04    0.77486E-04   -0.88240E-05  2955   0.519E-03    0.156E-02
RMM:   7    -0.233969686346E+04    0.13020E-05   -0.13318E-05  2846   0.284E-03
  52 F= -.23612550E+04 E0= -.23612550E+04  d E =-.955975E-02  mag=     4.0000
       N       E                     dE             d eps       ncg     rms          rms(c)
DAV:   1    -0.233969739188E+04   -0.52711E-03   -0.93752E-03  4840   0.839E-02    0.291E-02
RMM:   2    -0.233969742697E+04   -0.35089E-04   -0.35942E-04  5469   0.147E-02    0.291E-02
RMM:   3    -0.233969742562E+04    0.13513E-05   -0.43139E-05  2960   0.629E-03
  53 F= -.23612555E+04 E0= -.23612555E+04  d E =-.576432E-03  mag=     4.0000
       N       E                     dE             d eps       ncg     rms          rms(c)
DAV:   1    -0.233969801265E+04   -0.58569E-03   -0.78654E-03  4592   0.636E-02    0.309E-02
RMM:   2    -0.233969803249E+04   -0.19843E-04   -0.17552E-04  3789   0.102E-02    0.379E-02
RMM:   3    -0.233969802058E+04    0.11918E-04   -0.32513E-05  2951   0.516E-03    0.216E-02
RMM:   4    -0.233969802417E+04   -0.35960E-05   -0.16444E-05  2891   0.271E-03
  54 F= -.23612561E+04 E0= -.23612561E+04  d E =-.584404E-03  mag=     4.0000
       N       E                     dE             d eps       ncg     rms          rms(c)
DAV:   1    -0.233969836679E+04   -0.34621E-03   -0.29097E-03  4448   0.401E-02    0.150E-02
RMM:   2    -0.233969837101E+04   -0.42224E-05   -0.59747E-05  3212   0.643E-03
  55 F= -.23612565E+04 E0= -.23612565E+04  d E =-.340285E-03  mag=     4.0000
       N       E                     dE             d eps       ncg     rms          rms(c)
DAV:   1    -0.233969908173E+04   -0.71495E-03   -0.11073E-02  4544   0.706E-02    0.307E-02
RMM:   2    -0.233969910075E+04   -0.19012E-04   -0.16966E-04  3728   0.114E-02    0.365E-02
RMM:   3    -0.233969909193E+04    0.88171E-05   -0.31298E-05  2997   0.573E-03
  56 F= -.23612572E+04 E0= -.23612572E+04  d E =-.697679E-03  mag=     4.0000
       N       E                     dE             d eps       ncg     rms          rms(c)
DAV:   1    -0.233969990936E+04   -0.80862E-03   -0.14545E-02  4544   0.811E-02    0.336E-02
RMM:   2    -0.233969992682E+04   -0.17454E-04   -0.21785E-04  3831   0.117E-02    0.305E-02
RMM:   3    -0.233969992899E+04   -0.21777E-05   -0.35085E-05  3017   0.578E-03
  57 F= -.23612580E+04 E0= -.23612580E+04  d E =-.808079E-03  mag=     4.0000
       N       E                     dE             d eps       ncg     rms          rms(c)
DAV:   1    -0.233970126841E+04   -0.13416E-02   -0.41164E-02  4524   0.133E-01    0.545E-02
RMM:   2    -0.233970131578E+04   -0.47377E-04   -0.54288E-04  4544   0.174E-02    0.546E-02
RMM:   3    -0.233970131154E+04    0.42421E-05   -0.91884E-05  3149   0.824E-03
  58 F= -.23612593E+04 E0= -.23612593E+04  d E =-.135192E-02  mag=     4.0000
       N       E                     dE             d eps       ncg     rms          rms(c)
DAV:   1    -0.233970168750E+04   -0.37171E-03   -0.34321E-03  4464   0.419E-02    0.336E-02
RMM:   2    -0.233970174395E+04   -0.56451E-04   -0.15317E-04  3142   0.783E-03    0.729E-02
RMM:   3    -0.233970168330E+04    0.60649E-04   -0.45705E-05  2906   0.486E-03    0.178E-02
RMM:   4    -0.233970168476E+04   -0.14659E-05   -0.11526E-05  2513   0.216E-03
  59 F= -.23612597E+04 E0= -.23612597E+04  d E =-.364607E-03  mag=     4.0000
       N       E                     dE             d eps       ncg     rms          rms(c)
DAV:   1    -0.233970437788E+04   -0.26946E-02   -0.16889E-01  4524   0.261E-01    0.102E-01
RMM:   2    -0.233970448374E+04   -0.10586E-03   -0.19829E-03  4911   0.310E-02    0.678E-02
RMM:   3    -0.233970460206E+04   -0.11833E-03   -0.30719E-04  3554   0.161E-02    0.121E-01
RMM:   4    -0.233970443683E+04    0.16524E-03   -0.18838E-04  3273   0.721E-03    0.225E-02
RMM:   5    -0.233970444686E+04   -0.10038E-04   -0.35762E-05  2856   0.434E-03    0.363E-02
RMM:   6    -0.233970443223E+04    0.14636E-04   -0.12948E-05  2651   0.228E-03    0.865E-03
RMM:   7    -0.233970443194E+04    0.28292E-06   -0.29925E-06  2290   0.147E-03
  60 F= -.23612624E+04 E0= -.23612624E+04  d E =-.266427E-02  mag=     4.0000
       N       E                     dE             d eps       ncg     rms          rms(c)
DAV:   1    -0.233970938023E+04   -0.49480E-02   -0.62909E-01  4520   0.501E-01    0.194E-01
RMM:   2    -0.233970975662E+04   -0.37639E-03   -0.73977E-03  4739   0.578E-02    0.123E-01
RMM:   3    -0.233970995910E+04   -0.20248E-03   -0.91171E-04  4170   0.279E-02    0.184E-01
RMM:   4    -0.233970960980E+04    0.34930E-03   -0.50388E-04  3773   0.112E-02    0.554E-02
RMM:   5    -0.233970960786E+04    0.19434E-05   -0.81330E-05  3050   0.668E-03
  61 F= -.23612674E+04 E0= -.23612674E+04  d E =-.503037E-02  mag=     4.0000
       N       E                     dE             d eps       ncg     rms          rms(c)
DAV:   1    -0.233971414434E+04   -0.45345E-02   -0.58399E-01  4520   0.479E-01    0.187E-01
RMM:   2    -0.233971451637E+04   -0.37203E-03   -0.68616E-03  4978   0.560E-02    0.120E-01
RMM:   3    -0.233971479409E+04   -0.27772E-03   -0.98996E-04  4237   0.283E-02    0.194E-01
RMM:   4    -0.233971438346E+04    0.41063E-03   -0.45362E-04  3686   0.111E-02    0.488E-02
RMM:   5    -0.233971440764E+04   -0.24178E-04   -0.11296E-04  3045   0.691E-03    0.648E-02
RMM:   6    -0.233971435785E+04    0.49786E-04   -0.42416E-05  2857   0.385E-03    0.155E-02
RMM:   7    -0.233971435631E+04    0.15445E-05   -0.84524E-06  2713   0.219E-03
  62 F= -.23612720E+04 E0= -.23612720E+04  d E =-.463421E-02  mag=     4.0000
       N       E                     dE             d eps       ncg     rms          rms(c)
DAV:   1    -0.233971484249E+04   -0.48464E-03   -0.70530E-03  4816   0.649E-02    0.249E-02
RMM:   2    -0.233971485997E+04   -0.17484E-04   -0.18085E-04  4214   0.107E-02    0.255E-02
RMM:   3    -0.233971485869E+04    0.12816E-05   -0.24081E-05  2954   0.586E-03
  63 F= -.23612725E+04 E0= -.23612725E+04  d E =-.492656E-03  mag=     4.0000
       N       E                     dE             d eps       ncg     rms          rms(c)
DAV:   1    -0.233971779601E+04   -0.29360E-02   -0.23165E-01  4524   0.293E-01    0.123E-01
RMM:   2    -0.233971791213E+04   -0.11612E-03   -0.26137E-03  4859   0.341E-02    0.771E-02
RMM:   3    -0.233971796529E+04   -0.53158E-04   -0.34611E-04  3645   0.174E-02    0.103E-01
RMM:   4    -0.233971786066E+04    0.10463E-03   -0.18978E-04  3286   0.737E-03    0.371E-02
RMM:   5    -0.233971785453E+04    0.61265E-05   -0.28373E-05  2906   0.440E-03
  64 F= -.23612754E+04 E0= -.23612754E+04  d E =-.292593E-02  mag=     4.0000
       N       E                     dE             d eps       ncg     rms          rms(c)
DAV:   1    -0.233972159102E+04   -0.37304E-02   -0.39546E-01  4520   0.381E-01    0.155E-01
RMM:   2    -0.233972181239E+04   -0.22137E-03   -0.44215E-03  4835   0.433E-02    0.979E-02
RMM:   3    -0.233972190887E+04   -0.96473E-04   -0.57977E-04  3777   0.212E-02    0.134E-01
RMM:   4    -0.233972173134E+04    0.17753E-03   -0.29282E-04  3500   0.908E-03    0.461E-02
RMM:   5    -0.233972172904E+04    0.23004E-05   -0.58951E-05  2968   0.556E-03
  65 F= -.23612792E+04 E0= -.23612792E+04  d E =-.375354E-02  mag=     4.0000
       N       E                     dE             d eps       ncg     rms          rms(c)
DAV:   1    -0.233972452549E+04   -0.27942E-02   -0.22739E-01  4520   0.287E-01    0.117E-01
RMM:   2    -0.233972466133E+04   -0.13583E-03   -0.25322E-03  4930   0.333E-02    0.778E-02
RMM:   3    -0.233972481986E+04   -0.15854E-03   -0.41081E-04  3613   0.169E-02    0.138E-01
RMM:   4    -0.233972460511E+04    0.21475E-03   -0.21914E-04  3307   0.792E-03    0.280E-02
RMM:   5    -0.233972462065E+04   -0.15545E-04   -0.54636E-05  2857   0.490E-03    0.446E-02
RMM:   6    -0.233972459720E+04    0.23451E-04   -0.18064E-05  2696   0.262E-03    0.116E-02
RMM:   7    -0.233972459603E+04    0.11714E-05   -0.36476E-06  2300   0.151E-03
  66 F= -.23612820E+04 E0= -.23612820E+04  d E =-.276415E-02  mag=     4.0000
       N       E                     dE             d eps       ncg     rms          rms(c)
DAV:   1    -0.233972743375E+04   -0.28365E-02   -0.24146E-01  4520   0.293E-01    0.122E-01
RMM:   2    -0.233972760193E+04   -0.16818E-03   -0.29827E-03  4931   0.347E-02    0.857E-02
RMM:   3    -0.233972782028E+04   -0.21836E-03   -0.47563E-04  3549   0.175E-02    0.165E-01
RMM:   4    -0.233972751613E+04    0.30415E-03   -0.26028E-04  3352   0.824E-03    0.190E-02
RMM:   5    -0.233972751654E+04   -0.41067E-06   -0.34274E-05  2925   0.431E-03
  67 F= -.23612848E+04 E0= -.23612848E+04  d E =-.282769E-02  mag=     4.0000
       N       E                     dE             d eps       ncg     rms          rms(c)
DAV:   1    -0.233973549923E+04   -0.79831E-02   -0.21625E+00  4520   0.869E-01    0.361E-01
RMM:   2    -0.233973658867E+04   -0.10894E-02   -0.23657E-02  4801   0.967E-02    0.226E-01
RMM:   3    -0.233973678059E+04   -0.19191E-03   -0.27732E-03  4568   0.453E-02    0.259E-01
RMM:   4    -0.233973616483E+04    0.61576E-03   -0.14178E-03  4752   0.185E-02    0.115E-01
RMM:   5    -0.233973604538E+04    0.11945E-03   -0.17115E-04  3322   0.877E-03    0.595E-02
RMM:   6    -0.233973600856E+04    0.36824E-04   -0.45143E-05  2941   0.446E-03    0.201E-02
RMM:   7    -0.233973600892E+04   -0.36198E-06   -0.15253E-05  2834   0.278E-03
  68 F= -.23612930E+04 E0= -.23612930E+04  d E =-.818562E-02  mag=     4.0000
       N       E                     dE             d eps       ncg     rms          rms(c)
DAV:   1    -0.233973562877E+04    0.37978E-03   -0.84003E-03  4816   0.833E-02    0.289E-02
RMM:   2    -0.233973565526E+04   -0.26489E-04   -0.31232E-04  4990   0.149E-02    0.231E-02
RMM:   3    -0.233973566099E+04   -0.57256E-05   -0.38302E-05  2973   0.701E-03
  69 F= -.23612926E+04 E0= -.23612926E+04  d E =0.372387E-03  mag=     4.0000
       N       E                     dE             d eps       ncg     rms          rms(c)
DAV:   1    -0.233973800742E+04   -0.23522E-02   -0.18311E-01  4524   0.251E-01    0.101E-01
RMM:   2    -0.233973812450E+04   -0.11708E-03   -0.21526E-03  5098   0.297E-02    0.673E-02
RMM:   3    -0.233973825826E+04   -0.13376E-03   -0.31327E-04  3497   0.140E-02    0.128E-01
RMM:   4    -0.233973807774E+04    0.18052E-03   -0.19138E-04  3214   0.684E-03    0.233E-02
RMM:   5    -0.233973808359E+04   -0.58517E-05   -0.40553E-05  2832   0.404E-03
  70 F= -.23612949E+04 E0= -.23612949E+04  d E =-.233259E-02  mag=     4.0000
       N       E                     dE             d eps       ncg     rms          rms(c)
DAV:   1    -0.233973726918E+04    0.80856E-03   -0.21887E-02  4560   0.923E-02    0.373E-02
RMM:   2    -0.233973728674E+04   -0.17554E-04   -0.27985E-04  3921   0.121E-02    0.321E-02
RMM:   3    -0.233973729381E+04   -0.70697E-05   -0.45237E-05  3054   0.631E-03
  71 F= -.23612942E+04 E0= -.23612942E+04  d E =0.769844E-03  mag=     4.0000
       N       E                     dE             d eps       ncg     rms          rms(c)
DAV:   1    -0.233973769866E+04   -0.41193E-03   -0.66623E-03  4464   0.542E-02    0.189E-02
RMM:   2    -0.233973771668E+04   -0.18016E-04   -0.15193E-04  3540   0.867E-03    0.275E-02
RMM:   3    -0.233973770881E+04    0.78680E-05   -0.19044E-05  2707   0.445E-03
  72 F= -.23612946E+04 E0= -.23612946E+04  d E =-.408078E-03  mag=     4.0000
       N       E                     dE             d eps       ncg     rms          rms(c)
DAV:   1    -0.233973814731E+04   -0.43063E-03   -0.60769E-03  4432   0.506E-02    0.252E-02
RMM:   2    -0.233973815711E+04   -0.97976E-05   -0.10151E-04  3340   0.787E-03    0.274E-02
RMM:   3    -0.233973815245E+04    0.46607E-05   -0.21818E-05  2788   0.446E-03
  73 F= -.23612950E+04 E0= -.23612950E+04  d E =-.423575E-03  mag=     4.0000
       N       E                     dE             d eps       ncg     rms          rms(c)
DAV:   1    -0.233973849570E+04   -0.33859E-03   -0.37455E-03  4328   0.405E-02    0.277E-02
RMM:   2    -0.233973854330E+04   -0.47598E-04   -0.11060E-04  3141   0.750E-03    0.667E-02
RMM:   3    -0.233973849442E+04    0.48880E-04   -0.31383E-05  2855   0.453E-03    0.152E-02
RMM:   4    -0.233973849572E+04   -0.13019E-05   -0.10169E-05  2353   0.213E-03
  74 F= -.23612953E+04 E0= -.23612953E+04  d E =-.328785E-03  mag=     4.0000
       N       E                     dE             d eps       ncg     rms          rms(c)
DAV:   1    -0.233973829137E+04    0.20306E-03   -0.15162E-03  4344   0.272E-02    0.935E-03
RMM:   2    -0.233973829321E+04   -0.18462E-05   -0.24287E-05  2618   0.443E-03
  75 F= -.23612951E+04 E0= -.23612951E+04  d E =0.195610E-03  mag=     4.0000
       N       E                     dE             d eps       ncg     rms          rms(c)
DAV:   1    -0.233973835392E+04   -0.62559E-04   -0.42178E-04  4464   0.217E-02    0.119E-02
RMM:   2    -0.233973837365E+04   -0.19723E-04   -0.45235E-05  2781   0.526E-03    0.408E-02
RMM:   3    -0.233973835489E+04    0.18756E-04   -0.12549E-05  2428   0.344E-03    0.295E-03
RMM:   4    -0.233973835511E+04   -0.22119E-06   -0.20759E-06  2200   0.129E-03
  76 F= -.23612952E+04 E0= -.23612952E+04  d E =-.532351E-04  mag=     4.0000
       N       E                     dE             d eps       ncg     rms          rms(c)
DAV:   1    -0.233973892180E+04   -0.56691E-03   -0.10215E-02  4384   0.627E-02    0.249E-02
RMM:   2    -0.233973893176E+04   -0.99561E-05   -0.14333E-04  3564   0.843E-03    0.202E-02
RMM:   3    -0.233973893673E+04   -0.49704E-05   -0.21792E-05  2798   0.466E-03
  77 F= -.23612957E+04 E0= -.23612957E+04  d E =-.548297E-03  mag=     4.0000
       N       E                     dE             d eps       ncg     rms          rms(c)
DAV:   1    -0.233973903812E+04   -0.10635E-03   -0.38316E-04  4364   0.149E-02    0.895E-03
RMM:   2    -0.233973904148E+04   -0.33687E-05   -0.19301E-05  2503   0.317E-03
  78 F= -.23612958E+04 E0= -.23612958E+04  d E =-.983596E-04  mag=     4.0000
       N       E                     dE             d eps       ncg     rms          rms(c)
DAV:   1    -0.233973932585E+04   -0.28773E-03   -0.25300E-03  4216   0.310E-02    0.167E-02
RMM:   2    -0.233973932765E+04   -0.18000E-05   -0.36465E-05  2832   0.539E-03
  79 F= -.23612961E+04 E0= -.23612961E+04  d E =-.266354E-03  mag=     4.0000
       N       E                     dE             d eps       ncg     rms          rms(c)
DAV:   1    -0.233973949885E+04   -0.17300E-03   -0.10224E-03  4264   0.223E-02    0.235E-02
RMM:   2    -0.233973954771E+04   -0.48860E-04   -0.78044E-05  2998   0.601E-03    0.674E-02
RMM:   3    -0.233973949571E+04    0.52001E-04   -0.26858E-05  2674   0.407E-03    0.914E-03
RMM:   4    -0.233973949832E+04   -0.26149E-05   -0.62009E-06  2186   0.170E-03
  80 F= -.23612963E+04 E0= -.23612963E+04  d E =-.169518E-03  mag=     4.0000
       N       E                     dE             d eps       ncg     rms          rms(c)
DAV:   1    -0.233973950199E+04   -0.62856E-05   -0.34834E-05  3464   0.648E-03    0.259E-03
RMM:   2    -0.233973950266E+04   -0.67201E-06   -0.65761E-06  2371   0.251E-03
  81 F= -.23612963E+04 E0= -.23612963E+04  d E =-.510685E-05  mag=     4.0000
       N       E                     dE             d eps       ncg     rms          rms(c)
DAV:   1    -0.233974025552E+04   -0.75353E-03   -0.18121E-02  4400   0.782E-02    0.340E-02
RMM:   2    -0.233974026609E+04   -0.10565E-04   -0.21742E-04  3665   0.992E-03    0.216E-02
RMM:   3    -0.233974027533E+04   -0.92447E-05   -0.35721E-05  2945   0.596E-03
  82 F= -.23612970E+04 E0= -.23612970E+04  d E =-.734041E-03  mag=     4.0000
       N       E                     dE             d eps       ncg     rms          rms(c)
DAV:   1    -0.233974021985E+04    0.46233E-04   -0.22821E-04  4912   0.147E-02    0.111E-02
RMM:   2    -0.233974023870E+04   -0.18851E-04   -0.53102E-05  2875   0.420E-03    0.379E-02
RMM:   3    -0.233974022212E+04    0.16585E-04   -0.11996E-05  2371   0.299E-03    0.381E-03
RMM:   4    -0.233974022211E+04    0.13766E-07   -0.16404E-06  1406   0.933E-04
  83 F= -.23612970E+04 E0= -.23612970E+04  d E =0.445757E-04  mag=     4.0000
       N       E                     dE             d eps       ncg     rms          rms(c)
DAV:   1    -0.233974037667E+04   -0.15455E-03   -0.71874E-04  4208   0.193E-02    0.816E-03
RMM:   2    -0.233974038045E+04   -0.37817E-05   -0.25750E-05  2494   0.364E-03
  84 F= -.23612971E+04 E0= -.23612971E+04  d E =-.140762E-03  mag=     4.0000
       N       E                     dE             d eps       ncg     rms          rms(c)
DAV:   1    -0.233974074669E+04   -0.37002E-03   -0.42994E-03  4224   0.434E-02    0.216E-02
RMM:   2    -0.233974076452E+04   -0.17832E-04   -0.13147E-04  3390   0.823E-03    0.326E-02
RMM:   3    -0.233974075534E+04    0.91840E-05   -0.19624E-05  2582   0.439E-03
  85 F= -.23612974E+04 E0= -.23612974E+04  d E =-.342803E-03  mag=     4.0000
       N       E                     dE             d eps       ncg     rms          rms(c)
DAV:   1    -0.233974120305E+04   -0.43853E-03   -0.68687E-03  4448   0.555E-02    0.265E-02
RMM:   2    -0.233974123328E+04   -0.30237E-04   -0.20656E-04  3765   0.975E-03    0.424E-02
RMM:   3    -0.233974121557E+04    0.17713E-04   -0.28450E-05  2869   0.494E-03    0.167E-02
RMM:   4    -0.233974121397E+04    0.16034E-05   -0.72215E-06  2632   0.228E-03
  86 F= -.23612979E+04 E0= -.23612979E+04  d E =-.427144E-03  mag=     4.0000
       N       E                     dE             d eps       ncg     rms          rms(c)
DAV:   1    -0.233974153817E+04   -0.32260E-03   -0.35054E-03  4272   0.400E-02    0.224E-02
RMM:   2    -0.233974158269E+04   -0.44517E-04   -0.14989E-04  3439   0.757E-03    0.586E-02
RMM:   3    -0.233974154453E+04    0.38159E-04   -0.29273E-05  2686   0.425E-03    0.103E-02
RMM:   4    -0.233974154413E+04    0.39564E-06   -0.51619E-06  2251   0.169E-03
  87 F= -.23612982E+04 E0= -.23612982E+04  d E =-.309888E-03  mag=     4.0000
       N       E                     dE             d eps       ncg     rms          rms(c)
DAV:   1    -0.233974125032E+04    0.29421E-03   -0.27541E-03  4216   0.412E-02    0.164E-02
RMM:   2    -0.233974129422E+04   -0.43906E-04   -0.34821E-04  3885   0.937E-03    0.347E-02
RMM:   3    -0.233974128227E+04    0.11949E-04   -0.41207E-05  2533   0.506E-03    0.845E-03
RMM:   4    -0.233974128195E+04    0.31936E-06   -0.43834E-06  2174   0.151E-03
  88 F= -.23612980E+04 E0= -.23612980E+04  d E =0.218146E-03  mag=     4.0000
       N       E                     dE             d eps       ncg     rms          rms(c)
DAV:   1    -0.233974156402E+04   -0.28174E-03   -0.25201E-03  4224   0.311E-02    0.121E-02
RMM:   2    -0.233974156927E+04   -0.52519E-05   -0.40628E-05  2799   0.488E-03
  89 F= -.23612982E+04 E0= -.23612982E+04  d E =-.267039E-03  mag=     4.0000
       N       E                     dE             d eps       ncg     rms          rms(c)
DAV:   1    -0.233974233147E+04   -0.76746E-03   -0.18614E-02  4388   0.801E-02    0.394E-02
RMM:   2    -0.233974234614E+04   -0.14665E-04   -0.27447E-04  3750   0.118E-02    0.283E-02
RMM:   3    -0.233974236378E+04   -0.17645E-04   -0.50984E-05  3049   0.580E-03    0.475E-02
RMM:   4    -0.233974233749E+04    0.26292E-04   -0.28683E-05  2835   0.372E-03    0.605E-03
RMM:   5    -0.233974233786E+04   -0.37118E-06   -0.35662E-06  2308   0.197E-03
  90 F= -.23612989E+04 E0= -.23612989E+04  d E =-.720086E-03  mag=     4.0000
       N       E                     dE             d eps       ncg     rms          rms(c)
DAV:   1    -0.233974239800E+04   -0.60513E-04   -0.11683E-04  4088   0.704E-03    0.407E-03
RMM:   2    -0.233974239912E+04   -0.11185E-05   -0.26204E-06  2096   0.161E-03
  91 F= -.23612990E+04 E0= -.23612990E+04  d E =-.584230E-04  mag=     4.0000
       N       E                     dE             d eps       ncg     rms          rms(c)
DAV:   1    -0.233974302280E+04   -0.62480E-03   -0.12558E-02  4416   0.651E-02    0.298E-02
RMM:   2    -0.233974303354E+04   -0.10743E-04   -0.18366E-04  3624   0.862E-03    0.204E-02
RMM:   3    -0.233974304475E+04   -0.11205E-04   -0.27891E-05  2959   0.456E-03    0.379E-02
RMM:   4    -0.233974302857E+04    0.16183E-04   -0.16348E-05  2518   0.256E-03    0.630E-03
RMM:   5    -0.233974302968E+04   -0.11178E-05   -0.36152E-06  1975   0.166E-03
  92 F= -.23612996E+04 E0= -.23612996E+04  d E =-.589737E-03  mag=     4.0000
       N       E                     dE             d eps       ncg     rms          rms(c)
DAV:   1    -0.233974282430E+04    0.20426E-03   -0.13919E-03  4296   0.270E-02    0.108E-02
RMM:   2    -0.233974282679E+04   -0.24822E-05   -0.31784E-05  2627   0.466E-03
  93 F= -.23612994E+04 E0= -.23612994E+04  d E =0.187711E-03  mag=     4.0000
       N       E                     dE             d eps       ncg     rms          rms(c)
DAV:   1    -0.233974360768E+04   -0.78338E-03   -0.20238E-02  4496   0.836E-02    0.324E-02
RMM:   2    -0.233974363210E+04   -0.24419E-04   -0.29129E-04  3835   0.118E-02    0.301E-02
RMM:   3    -0.233974363512E+04   -0.30200E-05   -0.42283E-05  3011   0.574E-03
  94 F= -.23613002E+04 E0= -.23613002E+04  d E =-.761353E-03  mag=     4.0000
       N       E                     dE             d eps       ncg     rms          rms(c)
DAV:   1    -0.233974432168E+04   -0.68958E-03   -0.16262E-02  4500   0.755E-02    0.374E-02
RMM:   2    -0.233974433738E+04   -0.15699E-04   -0.22889E-04  3657   0.105E-02    0.314E-02
RMM:   3    -0.233974434383E+04   -0.64490E-05   -0.40627E-05  3001   0.552E-03
  95 F= -.23613008E+04 E0= -.23613008E+04  d E =-.674239E-03  mag=     4.0000
       N       E                     dE             d eps       ncg     rms          rms(c)
DAV:   1    -0.233974301967E+04    0.13177E-02   -0.53768E-02  4524   0.134E-01    0.567E-02
RMM:   2    -0.233974306825E+04   -0.48580E-04   -0.73782E-04  4814   0.176E-02    0.453E-02
RMM:   3    -0.233974308563E+04   -0.17388E-04   -0.10958E-04  3113   0.827E-03    0.598E-02
RMM:   4    -0.233974304987E+04    0.35761E-04   -0.52044E-05  3023   0.467E-03    0.263E-02
RMM:   5    -0.233974304606E+04    0.38113E-05   -0.20403E-05  2546   0.320E-03
  96 F= -.23612996E+04 E0= -.23612996E+04  d E =0.121739E-02  mag=     4.0000
       N       E                     dE             d eps       ncg     rms          rms(c)
DAV:   1    -0.233974408066E+04   -0.10308E-02   -0.36523E-02  4524   0.112E-01    0.485E-02
RMM:   2    -0.233974411696E+04   -0.36297E-04   -0.54633E-04  4531   0.148E-02    0.390E-02
RMM:   3    -0.233974413261E+04   -0.15647E-04   -0.80008E-05  3037   0.705E-03    0.536E-02
RMM:   4    -0.233974410578E+04    0.26828E-04   -0.43435E-05  2969   0.389E-03    0.249E-02
RMM:   5    -0.233974410059E+04    0.51893E-05   -0.15849E-05  2375   0.274E-03
  97 F= -.23613006E+04 E0= -.23613006E+04  d E =-.100039E-02  mag=     4.0000
       N       E                     dE             d eps       ncg     rms          rms(c)
DAV:   1    -0.233974408877E+04    0.17012E-04   -0.12342E-04  4696   0.128E-02    0.609E-03
RMM:   2    -0.233974409145E+04   -0.26789E-05   -0.15586E-05  2433   0.324E-03
  98 F= -.23613006E+04 E0= -.23613006E+04  d E =0.460768E-05  mag=     4.0000
       N       E                     dE             d eps       ncg     rms          rms(c)
DAV:   1    -0.233974408487E+04    0.38995E-05   -0.60284E-05  4464   0.948E-03    0.451E-03
RMM:   2    -0.233974408577E+04   -0.89835E-06   -0.49005E-06  2338   0.258E-03
  99 F= -.23613006E+04 E0= -.23613006E+04  d E =0.197119E-05  mag=     4.0000
       N       E                     dE             d eps       ncg     rms          rms(c)
DAV:   1    -0.233974425200E+04   -0.16713E-03   -0.85893E-04  4192   0.189E-02    0.781E-03
RMM:   2    -0.233974425349E+04   -0.14937E-05   -0.15700E-05  2429   0.349E-03
 100 F= -.23613008E+04 E0= -.23613008E+04  d E =-.152483E-03  mag=     4.0000
       N       E                     dE             d eps       ncg     rms          rms(c)
DAV:   1    -0.233974467113E+04   -0.41913E-03   -0.59833E-03  4228   0.459E-02    0.237E-02
RMM:   2    -0.233974468012E+04   -0.89914E-05   -0.86043E-05  3204   0.756E-03
 101 F= -.23613012E+04 E0= -.23613012E+04  d E =-.408201E-03  mag=     4.0000
       N       E                     dE             d eps       ncg     rms          rms(c)
DAV:   1    -0.233974487523E+04   -0.20410E-03   -0.14747E-03  4208   0.259E-02    0.261E-02
RMM:   2    -0.233974490971E+04   -0.34479E-04   -0.64833E-05  3018   0.611E-03    0.591E-02
RMM:   3    -0.233974487221E+04    0.37493E-04   -0.24386E-05  2639   0.379E-03    0.134E-02
RMM:   4    -0.233974487044E+04    0.17691E-05   -0.66661E-06  2236   0.178E-03
 102 F= -.23613014E+04 E0= -.23613014E+04  d E =-.187305E-03  mag=     4.0000
       N       E                     dE             d eps       ncg     rms          rms(c)
DAV:   1    -0.233974498933E+04   -0.11711E-03   -0.55475E-04  4224   0.160E-02    0.730E-03
RMM:   2    -0.233974499105E+04   -0.17214E-05   -0.11476E-05  2431   0.338E-03
 103 F= -.23613015E+04 E0= -.23613015E+04  d E =-.117674E-03  mag=     4.0000
       N       E                     dE             d eps       ncg     rms          rms(c)
DAV:   1    -0.233974515386E+04   -0.16453E-03   -0.87422E-04  4176   0.197E-02    0.109E-02
RMM:   2    -0.233974515599E+04   -0.21267E-05   -0.16566E-05  2496   0.418E-03
 104 F= -.23613016E+04 E0= -.23613016E+04  d E =-.153610E-03  mag=     4.0000
       N       E                     dE             d eps       ncg     rms          rms(c)
DAV:   1    -0.233974556027E+04   -0.40641E-03   -0.55070E-03  4264   0.443E-02    0.247E-02
RMM:   2    -0.233974556930E+04   -0.90208E-05   -0.76196E-05  3192   0.754E-03
 105 F= -.23613020E+04 E0= -.23613020E+04  d E =-.389028E-03  mag=     4.0000
       N       E                     dE             d eps       ncg     rms          rms(c)
DAV:   1    -0.233974569401E+04   -0.13374E-03   -0.66903E-04  4296   0.195E-02    0.239E-02
RMM:   2    -0.233974572747E+04   -0.33456E-04   -0.51066E-05  2952   0.521E-03    0.582E-02
RMM:   3    -0.233974569050E+04    0.36967E-04   -0.21740E-05  2611   0.340E-03    0.114E-02
RMM:   4    -0.233974569084E+04   -0.33868E-06   -0.61875E-06  2109   0.162E-03
 106 F= -.23613021E+04 E0= -.23613021E+04  d E =-.120912E-03  mag=     4.0000
       N       E                     dE             d eps       ncg     rms          rms(c)
DAV:   1    -0.233974565326E+04    0.37238E-04   -0.52454E-05  3608   0.544E-03    0.312E-03
RMM:   2    -0.233974565414E+04   -0.87894E-06   -0.21051E-06  1850   0.154E-03
 107 F= -.23613021E+04 E0= -.23613021E+04  d E =0.344936E-04  mag=     4.0000
       N       E                     dE             d eps       ncg     rms          rms(c)
DAV:   1    -0.233974529319E+04    0.36007E-03   -0.46305E-03  4454   0.459E-02    0.187E-02
RMM:   2    -0.233974531033E+04   -0.17136E-04   -0.15938E-04  3624   0.780E-03    0.243E-02
RMM:   3    -0.233974530583E+04    0.45039E-05   -0.18846E-05  2552   0.420E-03
 108 F= -.23613018E+04 E0= -.23613018E+04  d E =0.323250E-03  mag=     4.0000
       N       E                     dE             d eps       ncg     rms          rms(c)
DAV:   1    -0.233974410869E+04    0.12016E-02   -0.43760E-02  4524   0.141E-01    0.591E-02
RMM:   2    -0.233974429196E+04   -0.18327E-03   -0.15092E-03  5717   0.220E-02    0.870E-02
RMM:   3    -0.233974422206E+04    0.69900E-04   -0.17106E-04  3059   0.880E-03    0.390E-02
RMM:   4    -0.233974421202E+04    0.10036E-04   -0.36050E-05  3041   0.388E-03    0.272E-02
RMM:   5    -0.233974421530E+04   -0.32722E-05   -0.27825E-05  2815   0.314E-03
 109 F= -.23613008E+04 E0= -.23613008E+04  d E =0.103142E-02  mag=     4.0000
       N       E                     dE             d eps       ncg     rms          rms(c)
DAV:   1    -0.233974242047E+04    0.17916E-02   -0.86419E-02  4520   0.190E-01    0.757E-02
RMM:   2    -0.233974264331E+04   -0.22283E-03   -0.21944E-03  5894   0.275E-02    0.860E-02
RMM:   3    -0.233974260221E+04    0.41092E-04   -0.24868E-04  3210   0.105E-02    0.609E-02
RMM:   4    -0.233974256843E+04    0.33787E-04   -0.56244E-05  3059   0.494E-03    0.310E-02
RMM:   5    -0.233974257317E+04   -0.47467E-05   -0.44467E-05  2837   0.383E-03
 110 F= -.23612992E+04 E0= -.23612992E+04  d E =0.154051E-02  mag=     4.0000
       N       E                     dE             d eps       ncg     rms          rms(c)
DAV:   1    -0.233974145921E+04    0.11092E-02   -0.34269E-02  4524   0.116E-01    0.503E-02
RMM:   2    -0.233974155562E+04   -0.96417E-04   -0.76989E-04  4801   0.167E-02    0.693E-02
RMM:   3    -0.233974151161E+04    0.44012E-04   -0.10375E-04  3052   0.706E-03    0.341E-02
RMM:   4    -0.233974150979E+04    0.18216E-05   -0.32957E-05  2984   0.375E-03
 111 F= -.23612982E+04 E0= -.23612982E+04  d E =0.999946E-03  mag=     4.0000
       N       E                     dE             d eps       ncg     rms          rms(c)
DAV:   1    -0.233974443531E+04   -0.29237E-02   -0.33466E-01  4520   0.350E-01    0.142E-01
RMM:   2    -0.233974503561E+04   -0.60030E-03   -0.63755E-03  6029   0.463E-02    0.157E-01
RMM:   3    -0.233974492629E+04    0.10931E-03   -0.73508E-04  3612   0.188E-02    0.124E-01
RMM:   4    -0.233974478177E+04    0.14452E-03   -0.24531E-04  3461   0.853E-03    0.580E-02
RMM:   5    -0.233974479432E+04   -0.12553E-04   -0.13105E-04  2987   0.647E-03    0.656E-02
RMM:   6    -0.233974475005E+04    0.44272E-04   -0.42396E-05  2872   0.409E-03    0.228E-02
RMM:   7    -0.233974474430E+04    0.57496E-05   -0.10364E-05  2563   0.256E-03
 112 F= -.23613013E+04 E0= -.23613013E+04  d E =-.305511E-02  mag=     4.0000
       N       E                     dE             d eps       ncg     rms          rms(c)
DAV:   1    -0.233974685618E+04   -0.21061E-02   -0.21942E-01  4520   0.303E-01    0.120E-01
RMM:   2    -0.233974750365E+04   -0.64746E-03   -0.60083E-03  6142   0.435E-02    0.154E-01
RMM:   3    -0.233974732805E+04    0.17560E-03   -0.62421E-04  3571   0.171E-02    0.917E-02
RMM:   4    -0.233974725628E+04    0.71768E-04   -0.14632E-04  3259   0.702E-03    0.490E-02
RMM:   5    -0.233974728300E+04   -0.26723E-04   -0.10744E-04  2973   0.575E-03    0.671E-02
RMM:   6    -0.233974723388E+04    0.49129E-04   -0.39022E-05  2913   0.416E-03    0.165E-02
RMM:   7    -0.233974723157E+04    0.23052E-05   -0.86361E-06  2622   0.252E-03
 113 F= -.23613036E+04 E0= -.23613036E+04  d E =-.232563E-02  mag=     4.0000
       N       E                     dE             d eps       ncg     rms          rms(c)
DAV:   1    -0.233974731743E+04   -0.83552E-04   -0.26521E-04  4864   0.113E-02    0.495E-03
RMM:   2    -0.233974731784E+04   -0.41498E-06   -0.49541E-06  2506   0.218E-03
 114 F= -.23613037E+04 E0= -.23613037E+04  d E =-.852266E-04  mag=     4.0000
       N       E                     dE             d eps       ncg     rms          rms(c)
DAV:   1    -0.233974764717E+04   -0.32974E-03   -0.37182E-03  4216   0.363E-02    0.177E-02
RMM:   2    -0.233974765480E+04   -0.76250E-05   -0.65052E-05  2977   0.596E-03
 115 F= -.23613040E+04 E0= -.23613040E+04  d E =-.316533E-03  mag=     4.0000
       N       E                     dE             d eps       ncg     rms          rms(c)
DAV:   1    -0.233974879896E+04   -0.11518E-02   -0.45336E-02  4524   0.122E-01    0.622E-02
RMM:   2    -0.233974883934E+04   -0.40378E-04   -0.68789E-04  4261   0.172E-02    0.471E-02
RMM:   3    -0.233974887463E+04   -0.35288E-04   -0.12315E-04  3181   0.802E-03    0.715E-02
RMM:   4    -0.233974881471E+04    0.59916E-04   -0.65432E-05  3048   0.516E-03    0.997E-03
RMM:   5    -0.233974881738E+04   -0.26671E-05   -0.84782E-06  2696   0.267E-03
 116 F= -.23613051E+04 E0= -.23613051E+04  d E =-.108884E-02  mag=     4.0000
       N       E                     dE             d eps       ncg     rms          rms(c)
DAV:   1    -0.233974871784E+04    0.96878E-04   -0.45042E-04  4472   0.195E-02    0.729E-03
RMM:   2    -0.233974872002E+04   -0.21789E-05   -0.27667E-05  2587   0.415E-03
 117 F= -.23613050E+04 E0= -.23613050E+04  d E =0.841134E-04  mag=     4.0000
       N       E                     dE             d eps       ncg     rms          rms(c)
DAV:   1    -0.233975044016E+04   -0.17223E-02   -0.11036E-01  4520   0.190E-01    0.822E-02
RMM:   2    -0.233975054512E+04   -0.10495E-03   -0.15491E-03  5104   0.242E-02    0.640E-02
RMM:   3    -0.233975060280E+04   -0.57684E-04   -0.22264E-04  3295   0.108E-02    0.951E-02
RMM:   4    -0.233975050335E+04    0.99455E-04   -0.10754E-04  3125   0.601E-03    0.262E-02
RMM:   5    -0.233975050896E+04   -0.56119E-05   -0.37364E-05  2793   0.388E-03
 118 F= -.23613067E+04 E0= -.23613067E+04  d E =-.169257E-02  mag=     4.0000
       N       E                     dE             d eps       ncg     rms          rms(c)
DAV:   1    -0.233975481121E+04   -0.43079E-02   -0.83155E-01  4520   0.519E-01    0.228E-01
RMM:   2    -0.233975557151E+04   -0.76030E-03   -0.11774E-02  5576   0.625E-02    0.169E-01
RMM:   3    -0.233975611604E+04   -0.54453E-03   -0.16914E-03  4121   0.279E-02    0.275E-01
RMM:   4    -0.233975527553E+04    0.84051E-03   -0.89022E-04  3999   0.140E-02    0.579E-02
RMM:   5    -0.233975534968E+04   -0.74153E-04   -0.23897E-04  3057   0.856E-03    0.939E-02
RMM:   6    -0.233975524777E+04    0.10191E-03   -0.80109E-05  2862   0.474E-03    0.249E-02
RMM:   7    -0.233975524280E+04    0.49662E-05   -0.17472E-05  2681   0.275E-03
 119 F= -.23613112E+04 E0= -.23613112E+04  d E =-.446105E-02  mag=     4.0000
       N       E                     dE             d eps       ncg     rms          rms(c)
DAV:   1    -0.233975327504E+04    0.19727E-02   -0.14182E-01  4520   0.217E-01    0.940E-02
RMM:   2    -0.233975338698E+04   -0.11193E-03   -0.19145E-03  5220   0.267E-02    0.678E-02
RMM:   3    -0.233975350161E+04   -0.11464E-03   -0.28372E-04  3311   0.127E-02    0.123E-01
RMM:   4    -0.233975333296E+04    0.16866E-03   -0.16601E-04  3194   0.663E-03    0.171E-02
RMM:   5    -0.233975333556E+04   -0.26053E-05   -0.23810E-05  2840   0.358E-03
 120 F= -.23613094E+04 E0= -.23613094E+04  d E =0.180213E-02  mag=     4.0000
       N       E                     dE             d eps       ncg     rms          rms(c)
DAV:   1    -0.233975401905E+04   -0.68609E-03   -0.19737E-02  4524   0.904E-02    0.376E-02
RMM:   2    -0.233975403982E+04   -0.20770E-04   -0.34215E-04  4791   0.140E-02    0.273E-02
RMM:   3    -0.233975405221E+04   -0.12393E-04   -0.45582E-05  3034   0.682E-03    0.438E-02
RMM:   4    -0.233975403112E+04    0.21095E-04   -0.26583E-05  2953   0.356E-03    0.130E-02
RMM:   5    -0.233975403213E+04   -0.10097E-05   -0.93775E-06  2653   0.239E-03
 121 F= -.23613100E+04 E0= -.23613100E+04  d E =-.682047E-03  mag=     4.0000
       N       E                     dE             d eps       ncg     rms          rms(c)
DAV:   1    -0.233975402766E+04    0.34594E-05   -0.37624E-04  4632   0.219E-02    0.970E-03
RMM:   2    -0.233975402991E+04   -0.22535E-05   -0.15829E-05  2599   0.485E-03
 122 F= -.23613100E+04 E0= -.23613100E+04  d E =0.594602E-05  mag=     4.0000
       N       E                     dE             d eps       ncg     rms          rms(c)
DAV:   1    -0.233975405150E+04   -0.23844E-04   -0.48299E-05  4576   0.870E-03    0.777E-03
RMM:   2    -0.233975405785E+04   -0.63506E-05   -0.10233E-05  2473   0.285E-03
 123 F= -.23613101E+04 E0= -.23613101E+04  d E =-.264633E-04  mag=     4.0000
       N       E                     dE             d eps       ncg     rms          rms(c)
DAV:   1    -0.233975411877E+04   -0.67269E-04   -0.20197E-04  4448   0.123E-02    0.484E-03
RMM:   2    -0.233975411959E+04   -0.82415E-06   -0.89350E-06  2389   0.281E-03
 124 F= -.23613101E+04 E0= -.23613101E+04  d E =-.563317E-04  mag=     4.0000
       N       E                     dE             d eps       ncg     rms          rms(c)
DAV:   1    -0.233975452734E+04   -0.40857E-03   -0.65089E-03  4368   0.500E-02    0.224E-02
RMM:   2    -0.233975453421E+04   -0.68627E-05   -0.96831E-05  3217   0.780E-03
 125 F= -.23613105E+04 E0= -.23613105E+04  d E =-.390821E-03  mag=     4.0000
       N       E                     dE             d eps       ncg     rms          rms(c)
DAV:   1    -0.233975468069E+04   -0.15335E-03   -0.88546E-04  4248   0.218E-02    0.273E-02
RMM:   2    -0.233975474553E+04   -0.64841E-04   -0.94480E-05  2996   0.649E-03    0.785E-02
RMM:   3    -0.233975467515E+04    0.70386E-04   -0.34944E-05  2770   0.439E-03    0.106E-02
RMM:   4    -0.233975467900E+04   -0.38531E-05   -0.88561E-06  2324   0.188E-03
 126 F= -.23613106E+04 E0= -.23613106E+04  d E =-.142538E-03  mag=     4.0000
       N       E                     dE             d eps       ncg     rms          rms(c)
DAV:   1    -0.233975471223E+04   -0.37088E-04   -0.64961E-05  3584   0.665E-03    0.381E-03
RMM:   2    -0.233975471345E+04   -0.12126E-05   -0.32259E-06  2175   0.175E-03
 127 F= -.23613107E+04 E0= -.23613107E+04  d E =-.329926E-04  mag=     4.0000
       N       E                     dE             d eps       ncg     rms          rms(c)
DAV:   1    -0.233975487368E+04   -0.16144E-03   -0.10059E-03  4240   0.222E-02    0.103E-02
RMM:   2    -0.233975487832E+04   -0.46446E-05   -0.41426E-05  2619   0.452E-03
 128 F= -.23613108E+04 E0= -.23613108E+04  d E =-.145319E-03  mag=     4.0000
       N       E                     dE             d eps       ncg     rms          rms(c)
DAV:   1    -0.233975522928E+04   -0.35561E-03   -0.48665E-03  4300   0.422E-02    0.231E-02
RMM:   2    -0.233975523877E+04   -0.94889E-05   -0.84346E-05  3210   0.754E-03
 129 F= -.23613112E+04 E0= -.23613112E+04  d E =-.343818E-03  mag=     4.0000
       N       E                     dE             d eps       ncg     rms          rms(c)
DAV:   1    -0.233975558711E+04   -0.35783E-03   -0.48540E-03  4360   0.429E-02    0.323E-02
RMM:   2    -0.233975561947E+04   -0.32351E-04   -0.11278E-04  3296   0.833E-03    0.567E-02
RMM:   3    -0.233975558580E+04    0.33664E-04   -0.33452E-05  2918   0.475E-03    0.194E-02
RMM:   4    -0.233975558642E+04   -0.62145E-06   -0.14901E-05  2714   0.257E-03
 130 F= -.23613115E+04 E0= -.23613115E+04  d E =-.331356E-03  mag=     4.0000
       N       E                     dE             d eps       ncg     rms          rms(c)
DAV:   1    -0.233975590871E+04   -0.32291E-03   -0.42708E-03  4196   0.403E-02    0.178E-02
RMM:   2    -0.233975591963E+04   -0.10919E-04   -0.87803E-05  3331   0.655E-03    0.235E-02
RMM:   3    -0.233975591552E+04    0.41131E-05   -0.12767E-05  2574   0.359E-03
 131 F= -.23613118E+04 E0= -.23613118E+04  d E =-.311680E-03  mag=     4.0000
       N       E                     dE             d eps       ncg     rms          rms(c)
DAV:   1    -0.233975610299E+04   -0.18336E-03   -0.13585E-03  4208   0.232E-02    0.141E-02
RMM:   2    -0.233975611033E+04   -0.73380E-05   -0.37385E-05  2808   0.436E-03
 132 F= -.23613120E+04 E0= -.23613120E+04  d E =-.182494E-03  mag=     4.0000
       N       E                     dE             d eps       ncg     rms          rms(c)
DAV:   1    -0.233975569452E+04    0.40847E-03   -0.64904E-03  4496   0.589E-02    0.187E-02
RMM:   2    -0.233975573426E+04   -0.39738E-04   -0.39630E-04  4421   0.122E-02    0.229E-02
RMM:   3    -0.233975573226E+04    0.19964E-05   -0.44199E-05  2641   0.574E-03
[...]
RMM:   4    -0.233976057865E+04   -0.12058E-05   -0.67414E-06  2101   0.158E-03
 153 F= -.23613163E+04 E0= -.23613163E+04  d E =-.143441E-03  mag=     4.0000
       N       E                     dE             d eps       ncg     rms          rms(c)
DAV:   1    -0.233976064139E+04   -0.63949E-04   -0.16476E-04  3992   0.862E-03    0.622E-03
RMM:   2    -0.233976064482E+04   -0.34298E-05   -0.66638E-06  2286   0.203E-03
 154 F= -.23613163E+04 E0= -.23613163E+04  d E =-.629277E-04  mag=     4.0000
       N       E                     dE             d eps       ncg     rms          rms(c)
DAV:   1    -0.233976095405E+04   -0.31266E-03   -0.42857E-03  4252   0.392E-02    0.187E-02
RMM:   2    -0.233976095681E+04   -0.27555E-05   -0.59058E-05  2980   0.592E-03
 155 F= -.23613166E+04 E0= -.23613166E+04  d E =-.296941E-03  mag=     4.0000
       N       E                     dE             d eps       ncg     rms          rms(c)
DAV:   1    -0.233976115126E+04   -0.19721E-03   -0.14584E-03  4176   0.251E-02    0.270E-02
RMM:   2    -0.233976122309E+04   -0.71832E-04   -0.10943E-04  3001   0.654E-03    0.814E-02
RMM:   3    -0.233976114633E+04    0.76757E-04   -0.37577E-05  2782   0.450E-03    0.103E-02
RMM:   4    -0.233976114817E+04   -0.18375E-05   -0.75415E-06  2182   0.178E-03
 156 F= -.23613168E+04 E0= -.23613168E+04  d E =-.181162E-03  mag=     4.0000
       N       E                     dE             d eps       ncg     rms          rms(c)
DAV:   1    -0.233976115757E+04   -0.11237E-04   -0.95368E-06  2752   0.380E-03    0.599E-03
RMM:   2    -0.233976116183E+04   -0.42594E-05   -0.63515E-06  1671   0.152E-03
 157 F= -.23613168E+04 E0= -.23613168E+04  d E =-.128481E-04  mag=     4.0000
       N       E                     dE             d eps       ncg     rms          rms(c)
DAV:   1    -0.233976141208E+04   -0.25451E-03   -0.28342E-03  4296   0.345E-02    0.161E-02
RMM:   2    -0.233976142371E+04   -0.11628E-04   -0.11460E-04  3197   0.629E-03    0.187E-02
RMM:   3    -0.233976142107E+04    0.26353E-05   -0.13485E-05  2384   0.357E-03
 158 F= -.23613170E+04 E0= -.23613170E+04  d E =-.237734E-03  mag=     4.0000
       N       E                     dE             d eps       ncg     rms          rms(c)
DAV:   1    -0.233976163875E+04   -0.21504E-03   -0.19477E-03  4240   0.285E-02    0.192E-02
RMM:   2    -0.233976165716E+04   -0.18416E-04   -0.68959E-05  3051   0.555E-03    0.387E-02
RMM:   3    -0.233976164052E+04    0.16642E-04   -0.15953E-05  2543   0.333E-03    0.119E-02
RMM:   4    -0.233976164142E+04   -0.90250E-06   -0.63637E-06  1911   0.162E-03
 159 F= -.23613172E+04 E0= -.23613172E+04  d E =-.203764E-03  mag=     4.0000
       N       E                     dE             d eps       ncg     rms          rms(c)
DAV:   1    -0.233976132165E+04    0.31887E-03   -0.39769E-03  4380   0.380E-02    0.158E-02
RMM:   2    -0.233976132460E+04   -0.29496E-05   -0.54026E-05  2941   0.591E-03
 160 F= -.23613170E+04 E0= -.23613170E+04  d E =0.291589E-03  mag=     4.0000
       N       E                     dE             d eps       ncg     rms          rms(c)
DAV:   1    -0.233976162450E+04   -0.30285E-03   -0.45089E-03  4380   0.472E-02    0.238E-02
RMM:   2    -0.233976169353E+04   -0.69028E-04   -0.27163E-04  3589   0.996E-03    0.693E-02
RMM:   3    -0.233976163988E+04    0.53650E-04   -0.48172E-05  2827   0.503E-03    0.970E-03
RMM:   4    -0.233976163997E+04   -0.94820E-07   -0.71202E-06  2289   0.204E-03
 161 F= -.23613172E+04 E0= -.23613172E+04  d E =-.290236E-03  mag=     4.0000
       N       E                     dE             d eps       ncg     rms          rms(c)
DAV:   1    -0.233976158622E+04    0.53663E-04   -0.20210E-03  4528   0.439E-02    0.186E-02
RMM:   2    -0.233976163392E+04   -0.47709E-04   -0.44955E-04  4234   0.118E-02    0.254E-02
RMM:   3    -0.233976162844E+04    0.54882E-05   -0.41749E-05  2701   0.561E-03
 162 F= -.23613172E+04 E0= -.23613172E+04  d E =0.116784E-04  mag=     4.0000
       N       E                     dE             d eps       ncg     rms          rms(c)
DAV:   1    -0.233976175124E+04   -0.11731E-03   -0.70546E-04  4216   0.196E-02    0.861E-03
RMM:   2    -0.233976175218E+04   -0.94183E-06   -0.13271E-05  2439   0.382E-03
 163 F= -.23613174E+04 E0= -.23613174E+04  d E =-.119982E-03  mag=     4.0000
       N       E                     dE             d eps       ncg     rms          rms(c)
DAV:   1    -0.233976186392E+04   -0.11268E-03   -0.55200E-04  4184   0.158E-02    0.119E-02
RMM:   2    -0.233976187184E+04   -0.79183E-05   -0.18587E-05  2575   0.381E-03
 164 F= -.23613175E+04 E0= -.23613175E+04  d E =-.115858E-03  mag=     4.0000
       N       E                     dE             d eps       ncg     rms          rms(c)
DAV:   1    -0.233976223825E+04   -0.37433E-03   -0.59896E-03  4232   0.463E-02    0.242E-02
RMM:   2    -0.233976224256E+04   -0.43087E-05   -0.95494E-05  3199   0.758E-03
 165 F= -.23613178E+04 E0= -.23613178E+04  d E =-.350064E-03  mag=     4.0000
       N       E                     dE             d eps       ncg     rms          rms(c)
DAV:   1    -0.233976230867E+04   -0.70423E-04   -0.23977E-04  4872   0.152E-02    0.261E-02
RMM:   2    -0.233976238854E+04   -0.79873E-04   -0.12024E-04  2976   0.568E-03    0.842E-02
RMM:   3    -0.233976230332E+04    0.85228E-04   -0.38917E-05  2731   0.426E-03    0.980E-03
RMM:   4    -0.233976230295E+04    0.36803E-06   -0.49561E-06  2063   0.146E-03
 166 F= -.23613179E+04 E0= -.23613179E+04  d E =-.582780E-04  mag=     4.0000
       N       E                     dE             d eps       ncg     rms          rms(c)
DAV:   1    -0.233976250658E+04   -0.20326E-03   -0.17213E-03  4176   0.259E-02    0.129E-02
RMM:   2    -0.233976251265E+04   -0.60750E-05   -0.28651E-05  2618   0.405E-03
 167 F= -.23613181E+04 E0= -.23613181E+04  d E =-.197794E-03  mag=     4.0000
       N       E                     dE             d eps       ncg     rms          rms(c)
DAV:   1    -0.233976270726E+04   -0.20068E-03   -0.16748E-03  4184   0.253E-02    0.168E-02
RMM:   2    -0.233976270990E+04   -0.26466E-05   -0.27649E-05  2704   0.491E-03
 168 F= -.23613183E+04 E0= -.23613183E+04  d E =-.185771E-03  mag=     4.0000
       N       E                     dE             d eps       ncg     rms          rms(c)
DAV:   1    -0.233976286689E+04   -0.15963E-03   -0.11167E-03  4224   0.219E-02    0.200E-02
RMM:   2    -0.233976288620E+04   -0.19306E-04   -0.40557E-05  2930   0.492E-03    0.436E-02
RMM:   3    -0.233976286583E+04    0.20371E-04   -0.14650E-05  2483   0.316E-03    0.108E-02
RMM:   4    -0.233976286597E+04   -0.13971E-06   -0.49294E-06  1974   0.156E-03
 169 F= -.23613184E+04 E0= -.23613184E+04  d E =-.147885E-03  mag=     4.0000
       N       E                     dE             d eps       ncg     rms          rms(c)
DAV:   1    -0.233976296862E+04   -0.10279E-03   -0.45978E-04  4184   0.140E-02    0.607E-03
RMM:   2    -0.233976296972E+04   -0.11028E-05   -0.77224E-06  2397   0.269E-03
 170 F= -.23613185E+04 E0= -.23613185E+04  d E =-.994908E-04  mag=     4.0000
       N       E                     dE             d eps       ncg     rms          rms(c)
DAV:   1    -0.233976318284E+04   -0.21422E-03   -0.19799E-03  4208   0.269E-02    0.143E-02
RMM:   2    -0.233976318448E+04   -0.16368E-05   -0.27947E-05  2664   0.480E-03
 171 F= -.23613187E+04 E0= -.23613187E+04  d E =-.204567E-03  mag=     4.0000
       N       E                     dE             d eps       ncg     rms          rms(c)
DAV:   1    -0.233976343495E+04   -0.25210E-03   -0.27978E-03  4244   0.328E-02    0.238E-02
RMM:   2    -0.233976346269E+04   -0.27742E-04   -0.74587E-05  3092   0.697E-03    0.511E-02
RMM:   3    -0.233976343421E+04    0.28481E-04   -0.21978E-05  2709   0.416E-03    0.128E-02
RMM:   4    -0.233976343561E+04   -0.14048E-05   -0.74385E-06  2395   0.212E-03
 172 F= -.23613190E+04 E0= -.23613190E+04  d E =-.244180E-03  mag=     4.0000
       N       E                     dE             d eps       ncg     rms          rms(c)
DAV:   1    -0.233976360221E+04   -0.16800E-03   -0.11281E-03  4208   0.217E-02    0.974E-03
RMM:   2    -0.233976360485E+04   -0.26390E-05   -0.18426E-05  2543   0.389E-03
 173 F= -.23613191E+04 E0= -.23613191E+04  d E =-.155245E-03  mag=     4.0000
       N       E                     dE             d eps       ncg     rms          rms(c)
DAV:   1    -0.233976378424E+04   -0.18203E-03   -0.13957E-03  4184   0.227E-02    0.149E-02
RMM:   2    -0.233976378802E+04   -0.37824E-05   -0.22617E-05  2693   0.449E-03
 174 F= -.23613193E+04 E0= -.23613193E+04  d E =-.173145E-03  mag=     4.0000
       N       E                     dE             d eps       ncg     rms          rms(c)
DAV:   1    -0.233976412801E+04   -0.34377E-03   -0.52828E-03  4424   0.451E-02    0.264E-02
RMM:   2    -0.233976413559E+04   -0.75836E-05   -0.82405E-05  3264   0.807E-03
 175 F= -.23613196E+04 E0= -.23613196E+04  d E =-.323124E-03  mag=     4.0000
       N       E                     dE             d eps       ncg     rms          rms(c)
DAV:   1    -0.233976442699E+04   -0.29898E-03   -0.36745E-03  4296   0.393E-02    0.338E-02
RMM:   2    -0.233976448492E+04   -0.57934E-04   -0.11828E-04  3172   0.846E-03    0.757E-02
RMM:   3    -0.233976442313E+04    0.61790E-04   -0.41211E-05  2897   0.509E-03    0.177E-02
RMM:   4    -0.233976442144E+04    0.16930E-05   -0.11652E-05  2648   0.240E-03
 176 F= -.23613199E+04 E0= -.23613199E+04  d E =-.272564E-03  mag=     4.0000
       N       E                     dE             d eps       ncg     rms          rms(c)
DAV:   1    -0.233976440039E+04    0.22747E-04   -0.50296E-05  3904   0.759E-03    0.755E-03
RMM:   2    -0.233976440781E+04   -0.74222E-05   -0.14087E-05  2495   0.319E-03
 177 F= -.23613199E+04 E0= -.23613199E+04  d E =0.108758E-04  mag=     4.0000
       N       E                     dE             d eps       ncg     rms          rms(c)
DAV:   1    -0.233976448987E+04   -0.89486E-04   -0.35907E-04  4224   0.139E-02    0.490E-03
RMM:   2    -0.233976449110E+04   -0.12268E-05   -0.10910E-05  2377   0.280E-03
 178 F= -.23613199E+04 E0= -.23613199E+04  d E =-.778653E-04  mag=     4.0000
       N       E                     dE             d eps       ncg     rms          rms(c)
DAV:   1    -0.233976485885E+04   -0.36897E-03   -0.63109E-03  4440   0.478E-02    0.227E-02
RMM:   2    -0.233976486287E+04   -0.40261E-05   -0.82767E-05  3236   0.759E-03
 179 F= -.23613203E+04 E0= -.23613203E+04  d E =-.354968E-03  mag=     4.0000
       N       E                     dE             d eps       ncg     rms          rms(c)
DAV:   1    -0.233976503249E+04   -0.17364E-03   -0.11459E-03  4240   0.250E-02    0.301E-02
RMM:   2    -0.233976512046E+04   -0.87974E-04   -0.13656E-04  3072   0.760E-03    0.889E-02
RMM:   3    -0.233976502543E+04    0.95036E-04   -0.48473E-05  2856   0.523E-03    0.952E-03
RMM:   4    -0.233976502681E+04   -0.13840E-05   -0.74800E-06  2377   0.196E-03
 180 F= -.23613205E+04 E0= -.23613205E+04  d E =-.155564E-03  mag=     4.0000
       N       E                     dE             d eps       ncg     rms          rms(c)
DAV:   1    -0.233976509033E+04   -0.64905E-04   -0.18744E-04  3904   0.960E-03    0.622E-03
RMM:   2    -0.233976509352E+04   -0.31916E-05   -0.59702E-06  2356   0.225E-03
 181 F= -.23613205E+04 E0= -.23613205E+04  d E =-.633924E-04  mag=     4.0000
       N       E                     dE             d eps       ncg     rms          rms(c)
DAV:   1    -0.233976505562E+04    0.34713E-04   -0.10275E-04  4248   0.100E-02    0.356E-03
RMM:   2    -0.233976505608E+04   -0.46092E-06   -0.40200E-06  2312   0.237E-03
 182 F= -.23613205E+04 E0= -.23613205E+04  d E =0.392205E-04  mag=     4.0000
       N       E                     dE             d eps       ncg     rms          rms(c)
DAV:   1    -0.233976543672E+04   -0.38110E-03   -0.65392E-03  4296   0.480E-02    0.205E-02
RMM:   2    -0.233976544101E+04   -0.42885E-05   -0.80446E-05  3096   0.699E-03
 183 F= -.23613208E+04 E0= -.23613208E+04  d E =-.364368E-03  mag=     4.0000
       N       E                     dE             d eps       ncg     rms          rms(c)
DAV:   1    -0.233976565298E+04   -0.21626E-03   -0.19249E-03  4220   0.289E-02    0.313E-02
RMM:   2    -0.233976575831E+04   -0.10533E-03   -0.14799E-04  3037   0.768E-03    0.992E-02
RMM:   3    -0.233976564577E+04    0.11254E-03   -0.51414E-05  2884   0.514E-03    0.107E-02
RMM:   4    -0.233976564908E+04   -0.33125E-05   -0.10259E-05  2407   0.207E-03
 184 F= -.23613210E+04 E0= -.23613210E+04  d E =-.200399E-03  mag=     4.0000
       N       E                     dE             d eps       ncg     rms          rms(c)
DAV:   1    -0.233976586975E+04   -0.22398E-03   -0.22493E-03  4192   0.292E-02    0.132E-02
RMM:   2    -0.233976587380E+04   -0.40461E-05   -0.34198E-05  2772   0.478E-03
 185 F= -.23613213E+04 E0= -.23613213E+04  d E =-.212384E-03  mag=     4.0000
       N       E                     dE             d eps       ncg     rms          rms(c)
DAV:   1    -0.233976604655E+04   -0.17680E-03   -0.16378E-03  4448   0.311E-02    0.188E-02
RMM:   2    -0.233976605877E+04   -0.12219E-04   -0.67624E-05  3191   0.716E-03    0.305E-02
RMM:   3    -0.233976605010E+04    0.86637E-05   -0.14507E-05  2611   0.432E-03
 186 F= -.23613214E+04 E0= -.23613214E+04  d E =-.164207E-03  mag=     4.0000
       N       E                     dE             d eps       ncg     rms          rms(c)
DAV:   1    -0.233976621677E+04   -0.15800E-03   -0.12621E-03  4256   0.249E-02    0.129E-02
RMM:   2    -0.233976622247E+04   -0.57014E-05   -0.31054E-05  2740   0.493E-03
 187 F= -.23613216E+04 E0= -.23613216E+04  d E =-.164368E-03  mag=     4.0000
       N       E                     dE             d eps       ncg     rms          rms(c)
DAV:   1    -0.233976647439E+04   -0.25762E-03   -0.29814E-03  4240   0.338E-02    0.199E-02
RMM:   2    -0.233976647731E+04   -0.29147E-05   -0.45560E-05  3018   0.623E-03
 188 F= -.23613218E+04 E0= -.23613218E+04  d E =-.242817E-03  mag=     4.0000
       N       E                     dE             d eps       ncg     rms          rms(c)
DAV:   1    -0.233976640622E+04    0.68173E-04   -0.35469E-04  4464   0.176E-02    0.171E-02
RMM:   2    -0.233976643761E+04   -0.31396E-04   -0.57683E-05  2965   0.506E-03    0.519E-02
RMM:   3    -0.233976640562E+04    0.31989E-04   -0.19746E-05  2511   0.388E-03    0.443E-03
RMM:   4    -0.233976640567E+04   -0.40352E-07   -0.21652E-06  2116   0.127E-03
 189 F= -.23613218E+04 E0= -.23613218E+04  d E =0.721812E-04  mag=     4.0000
       N       E                     dE             d eps       ncg     rms          rms(c)
DAV:   1    -0.233976648349E+04   -0.77861E-04   -0.31371E-04  4128   0.123E-02    0.609E-03
RMM:   2    -0.233976648499E+04   -0.15034E-05   -0.60530E-06  2375   0.252E-03
 190 F= -.23613218E+04 E0= -.23613218E+04  d E =-.795032E-04  mag=     4.0000
       N       E                     dE             d eps       ncg     rms          rms(c)
DAV:   1    -0.233976660500E+04   -0.12151E-03   -0.67961E-04  4184   0.168E-02    0.939E-03
RMM:   2    -0.233976660557E+04   -0.57367E-06   -0.10602E-05  2414   0.336E-03
 191 F= -.23613220E+04 E0= -.23613220E+04  d E =-.113595E-03  mag=     4.0000
       N       E                     dE             d eps       ncg     rms          rms(c)
DAV:   1    -0.233976685343E+04   -0.24843E-03   -0.28763E-03  4200   0.322E-02    0.196E-02
RMM:   2    -0.233976686738E+04   -0.13948E-04   -0.50533E-05  2969   0.596E-03    0.365E-02
RMM:   3    -0.233976685391E+04    0.13470E-04   -0.13233E-05  2531   0.338E-03    0.119E-02
RMM:   4    -0.233976685252E+04    0.13922E-05   -0.42216E-06  2179   0.176E-03
 192 F= -.23613222E+04 E0= -.23613222E+04  d E =-.239047E-03  mag=     4.0000
       N       E                     dE             d eps       ncg     rms          rms(c)
DAV:   1    -0.233976699472E+04   -0.14081E-03   -0.92832E-04  4160   0.187E-02    0.993E-03
RMM:   2    -0.233976700041E+04   -0.56878E-05   -0.17080E-05  2563   0.353E-03
 193 F= -.23613223E+04 E0= -.23613223E+04  d E =-.140621E-03  mag=     4.0000
       N       E                     dE             d eps       ncg     rms          rms(c)
DAV:   1    -0.233976715426E+04   -0.15954E-03   -0.11797E-03  4224   0.229E-02    0.128E-02
RMM:   2    -0.233976715530E+04   -0.10399E-05   -0.24974E-05  2576   0.455E-03
 194 F= -.23613225E+04 E0= -.23613225E+04  d E =-.145884E-03  mag=     4.0000
       N       E                     dE             d eps       ncg     rms          rms(c)
DAV:   1    -0.233976749787E+04   -0.34361E-03   -0.57341E-03  4400   0.455E-02    0.239E-02
RMM:   2    -0.233976752154E+04   -0.23665E-04   -0.97972E-05  3253   0.828E-03    0.451E-02
RMM:   3    -0.233976750044E+04    0.21096E-04   -0.21074E-05  2813   0.457E-03    0.144E-02
RMM:   4    -0.233976750035E+04    0.90920E-07   -0.75605E-06  2466   0.238E-03
 195 F= -.23613228E+04 E0= -.23613228E+04  d E =-.335923E-03  mag=     4.0000
       N       E                     dE             d eps       ncg     rms          rms(c)
DAV:   1    -0.233976785033E+04   -0.34988E-03   -0.54065E-03  4232   0.441E-02    0.200E-02
RMM:   2    -0.233976785679E+04   -0.64605E-05   -0.69783E-05  3184   0.669E-03
 196 F= -.23613231E+04 E0= -.23613231E+04  d E =-.332912E-03  mag=     4.0000
       N       E                     dE             d eps       ncg     rms          rms(c)
DAV:   1    -0.233976844237E+04   -0.59204E-03   -0.16080E-02  4488   0.741E-02    0.430E-02
RMM:   2    -0.233976847218E+04   -0.29818E-04   -0.24886E-04  3741   0.119E-02    0.525E-02
RMM:   3    -0.233976845491E+04    0.17279E-04   -0.55762E-05  3045   0.588E-03    0.359E-02
RMM:   4    -0.233976844288E+04    0.12029E-04   -0.25522E-05  2921   0.344E-03    0.140E-02
RMM:   5    -0.233976844308E+04   -0.20862E-06   -0.77277E-06  2460   0.241E-03
 197 F= -.23613237E+04 E0= -.23613237E+04  d E =-.559614E-03  mag=     4.0000
       N       E                     dE             d eps       ncg     rms          rms(c)
DAV:   1    -0.233976762258E+04    0.82030E-03   -0.30268E-02  4520   0.998E-02    0.438E-02
RMM:   2    -0.233976764346E+04   -0.20881E-04   -0.37675E-04  4109   0.124E-02    0.325E-02
RMM:   3    -0.233976766147E+04   -0.18008E-04   -0.65306E-05  3001   0.666E-03    0.508E-02
RMM:   4    -0.233976763208E+04    0.29394E-04   -0.31331E-05  2846   0.357E-03    0.114E-02
RMM:   5    -0.233976763370E+04   -0.16207E-05   -0.93111E-06  2204   0.242E-03
 198 F= -.23613229E+04 E0= -.23613229E+04  d E =0.771821E-03  mag=     4.0000
       N       E                     dE             d eps       ncg     rms          rms(c)
DAV:   1    -0.233976821665E+04   -0.58458E-03   -0.15728E-02  4456   0.727E-02    0.317E-02
RMM:   2    -0.233976822624E+04   -0.95883E-05   -0.18534E-04  3535   0.918E-03    0.237E-02
RMM:   3    -0.233976823733E+04   -0.11090E-04   -0.33429E-05  2882   0.527E-03    0.394E-02
RMM:   4    -0.233976822116E+04    0.16170E-04   -0.20007E-05  2583   0.280E-03    0.119E-02
RMM:   5    -0.233976822062E+04    0.53854E-06   -0.60453E-06  2037   0.199E-03
 199 F= -.23613235E+04 E0= -.23613235E+04  d E =-.553975E-03  mag=     4.0000
       N       E                     dE             d eps       ncg     rms          rms(c)
DAV:   1    -0.233976824532E+04   -0.24161E-04   -0.65160E-05  4408   0.855E-03    0.368E-03
RMM:   2    -0.233976824584E+04   -0.51156E-06   -0.38622E-06  2374   0.203E-03
 200 F= -.23613235E+04 E0= -.23613235E+04  d E =-.249737E-04  mag=     4.0000
       N       E                     dE             d eps       ncg     rms          rms(c)
DAV:   1    -0.233976831843E+04   -0.73104E-04   -0.27330E-04  4232   0.123E-02    0.592E-03
RMM:   2    -0.233976831929E+04   -0.86514E-06   -0.68429E-06  2371   0.279E-03
 201 F= -.23613236E+04 E0= -.23613236E+04  d E =-.707785E-04  mag=     4.0000
