       N       E                     dE             d eps       ncg     rms          rms(c)
DAV:   1     0.131148220827E+05    0.13115E+05   -0.84290E+05  4528   0.145E+03
DAV:   2    -0.101130080171E+04   -0.14126E+05   -0.13497E+05  4952   0.331E+02
DAV:   3    -0.248134051458E+04   -0.14700E+04   -0.14513E+04  5544   0.115E+02
DAV:   4    -0.252823314597E+04   -0.46893E+02   -0.46651E+02  6720   0.300E+01
DAV:   5    -0.252904815934E+04   -0.81501E+00   -0.81296E+00  6240   0.340E+00    0.170E+02
RMM:   6    -0.149479218705E+04    0.10343E+04   -0.19543E+03  4460   0.383E+01    0.724E+01
RMM:   7    -0.167083556543E+04   -0.17604E+03   -0.29351E+02  5101   0.143E+01    0.513E+01
RMM:   8    -0.172325716824E+04   -0.52422E+02   -0.62522E+01  5301   0.743E+00    0.464E+01
RMM:   9    -0.177456309341E+04   -0.51306E+02   -0.55970E+01  5050   0.663E+00    0.355E+01
RMM:  10    -0.192271490463E+04   -0.14815E+03   -0.68766E+01  5226   0.810E+00    0.245E+01
RMM:  11    -0.198755156045E+04   -0.64837E+02   -0.23330E+01  5255   0.430E+00    0.242E+01
RMM:  12    -0.205300904398E+04   -0.65457E+02   -0.23372E+01  4885   0.385E+00    0.165E+01
RMM:  13    -0.211887103761E+04   -0.65862E+02   -0.28287E+01  4979   0.400E+00    0.140E+01
RMM:  14    -0.220725492372E+04   -0.88384E+02   -0.58175E+01  4631   0.560E+00    0.101E+01
RMM:  15    -0.228552965855E+04   -0.78275E+02   -0.70306E+01  4669   0.585E+00    0.722E+00
RMM:  16    -0.230824151530E+04   -0.22712E+02   -0.22435E+01  4685   0.380E+00    0.479E+00
RMM:  17    -0.231612007499E+04   -0.78786E+01   -0.90201E+00  4789   0.197E+00    0.257E+00
RMM:  18    -0.231812177772E+04   -0.20017E+01   -0.13792E+00  5038   0.107E+00    0.313E+00
RMM:  19    -0.231825193266E+04   -0.13015E+00   -0.18830E-01  5714   0.335E-01    0.307E+00
RMM:  20    -0.231816759373E+04    0.84339E-01   -0.19246E-02  5688   0.852E-02    0.294E+00
RMM:  21    -0.231823207358E+04   -0.64480E-01   -0.31697E-03  5236   0.448E-02    0.311E+00
RMM:  22    -0.231856217349E+04   -0.33010E+00   -0.31871E-01  4449   0.295E-01    0.229E+00
RMM:  23    -0.231830132604E+04    0.26085E+00   -0.57011E-01  4458   0.330E-01    0.481E+00
RMM:  24    -0.231865717114E+04   -0.35585E+00   -0.33765E-01  4691   0.171E-01    0.378E+00
RMM:  25    -0.231872004015E+04   -0.62869E-01   -0.32137E-02  4856   0.931E-02    0.343E+00
RMM:  26    -0.231932773826E+04   -0.60770E+00   -0.66052E-01  4544   0.370E-01    0.296E+00
RMM:  27    -0.231945743000E+04   -0.12969E+00   -0.16625E-01  4761   0.231E-01    0.198E+00
RMM:  28    -0.231944971320E+04    0.77168E-02   -0.23457E-02  4908   0.945E-02    0.177E+00
RMM:  29    -0.231948585526E+04   -0.36142E-01   -0.13780E-02  4624   0.747E-02    0.107E+00
RMM:  30    -0.231950288212E+04   -0.17027E-01   -0.89028E-03  4597   0.658E-02    0.738E-01
RMM:  31    -0.231951778485E+04   -0.14903E-01   -0.62432E-03  4559   0.606E-02    0.414E-01
RMM:  32    -0.231953069655E+04   -0.12912E-01   -0.55463E-03  4492   0.486E-02    0.390E-01
RMM:  33    -0.231953629816E+04   -0.56016E-02   -0.22332E-03  4600   0.394E-02    0.187E-01
RMM:  34    -0.231954277915E+04   -0.64810E-02   -0.26816E-03  4478   0.316E-02    0.800E-02
RMM:  35    -0.231954584706E+04   -0.30679E-02   -0.79416E-04  4190   0.245E-02    0.815E-02
RMM:  36    -0.231954722274E+04   -0.13757E-02   -0.44021E-04  4140   0.135E-02    0.349E-02
RMM:  37    -0.231954792538E+04   -0.70264E-03   -0.14265E-04  3770   0.112E-02    0.205E-02
RMM:  38    -0.231954819574E+04   -0.27036E-03   -0.74964E-05  3592   0.601E-03    0.185E-02
RMM:  39    -0.231954832261E+04   -0.12687E-03   -0.22067E-05  3086   0.495E-03    0.102E-02
RMM:  40    -0.231954837162E+04   -0.49007E-04   -0.13074E-05  2936   0.337E-03    0.596E-03
RMM:  41    -0.231954838474E+04   -0.13117E-04   -0.47656E-06  2761   0.285E-03    0.334E-03
RMM:  42    -0.231954839011E+04   -0.53702E-05   -0.32785E-06  2469   0.185E-03
   1 F= -.23408883E+04 E0= -.23408881E+04  d E =-.234089E+04  mag=     4.9971
       N       E                     dE             d eps       ncg     rms          rms(c)
DAV:   1    -0.231953993372E+04    0.84510E-02   -0.92379E-01  5248   0.992E-01    0.368E-01
RMM:   2    -0.231955888588E+04   -0.18952E-01   -0.18973E-01  5928   0.230E-01    0.467E-01
RMM:   3    -0.231955877615E+04    0.10973E-03   -0.22836E-02  5672   0.111E-01    0.344E-01
RMM:   4    -0.231955779370E+04    0.98245E-03   -0.21493E-03  5237   0.247E-02    0.165E-01
RMM:   5    -0.231955756254E+04    0.23116E-03   -0.57262E-04  4299   0.149E-02    0.111E-01
RMM:   6    -0.231955734589E+04    0.21665E-03   -0.45947E-04  4602   0.144E-02    0.364E-02
RMM:   7    -0.231955735630E+04   -0.10410E-04   -0.10348E-04  3461   0.108E-02    0.603E-02
RMM:   8    -0.231955732825E+04    0.28052E-04   -0.32040E-05  2922   0.448E-03    0.125E-02
RMM:   9    -0.231955732851E+04   -0.25750E-06   -0.81989E-06  2916   0.319E-03
   2 F= -.23408976E+04 E0= -.23408974E+04  d E =-.924140E-02  mag=     4.9974
       N       E                     dE             d eps       ncg     rms          rms(c)
DAV:   1    -0.231955636928E+04    0.95897E-03   -0.69811E-02  4944   0.274E-01    0.101E-01
RMM:   2    -0.231955779002E+04   -0.14207E-02   -0.14311E-02  6036   0.639E-02    0.126E-01
RMM:   3    -0.231955779434E+04   -0.43211E-05   -0.17080E-03  3862   0.298E-02    0.961E-02
RMM:   4    -0.231955771420E+04    0.80145E-04   -0.15520E-04  3038   0.787E-03    0.429E-02
RMM:   5    -0.231955770090E+04    0.13300E-04   -0.45250E-05  2945   0.497E-03    0.318E-02
RMM:   6    -0.231955768489E+04    0.16006E-04   -0.37743E-05  3084   0.514E-03    0.147E-02
RMM:   7    -0.231955768749E+04   -0.26046E-05   -0.15724E-05  2846   0.451E-03
   3 F= -.23408980E+04 E0= -.23408978E+04  d E =-.968460E-02  mag=     4.9974
       N       E                     dE             d eps       ncg     rms          rms(c)
DAV:   1    -0.231954790508E+04    0.97798E-02   -0.93752E-01  4656   0.103E+00    0.336E-01
RMM:   2    -0.231956258511E+04   -0.14680E-01   -0.15276E-01  5995   0.218E-01    0.343E-01
RMM:   3    -0.231956332853E+04   -0.74342E-03   -0.18457E-02  5715   0.979E-02    0.303E-01
RMM:   4    -0.231956261129E+04    0.71724E-03   -0.17831E-03  5198   0.218E-02    0.156E-01
RMM:   5    -0.231956238776E+04    0.22353E-03   -0.44494E-04  3796   0.123E-02    0.912E-02
RMM:   6    -0.231956224329E+04    0.14447E-03   -0.28025E-04  4451   0.115E-02    0.315E-02
RMM:   7    -0.231956223553E+04    0.77584E-05   -0.81190E-05  3553   0.935E-03
   4 F= -.23409026E+04 E0= -.23409025E+04  d E =-.462734E-02  mag=     4.9978
       N       E                     dE             d eps       ncg     rms          rms(c)
DAV:   1    -0.231955914087E+04    0.31024E-02   -0.21170E-01  4720   0.491E-01    0.161E-01
RMM:   2    -0.231956245164E+04   -0.33108E-02   -0.34612E-02  6093   0.104E-01    0.170E-01
RMM:   3    -0.231956263550E+04   -0.18387E-03   -0.41427E-03  4970   0.466E-02    0.148E-01
RMM:   4    -0.231956246633E+04    0.16918E-03   -0.39462E-04  3198   0.109E-02    0.722E-02
RMM:   5    -0.231956241898E+04    0.47345E-04   -0.10348E-04  3013   0.705E-03    0.449E-02
RMM:   6    -0.231956238518E+04    0.33801E-04   -0.75801E-05  3655   0.663E-03    0.230E-02
RMM:   7    -0.231956238752E+04   -0.23349E-05   -0.32200E-05  2923   0.575E-03
   5 F= -.23409028E+04 E0= -.23409027E+04  d E =-.481689E-02  mag=     4.9982
       N       E                     dE             d eps       ncg     rms          rms(c)
DAV:   1    -0.231955472944E+04    0.76557E-02   -0.73991E-01  4608   0.888E-01    0.226E-01
RMM:   2    -0.231956531032E+04   -0.10581E-01   -0.10849E-01  6179   0.180E-01    0.298E-01
RMM:   3    -0.231956540457E+04   -0.94245E-04   -0.11668E-02  5460   0.747E-02    0.135E-01
RMM:   4    -0.231956529377E+04    0.11079E-03   -0.10624E-03  4374   0.155E-02    0.804E-02
RMM:   5    -0.231956528481E+04    0.89675E-05   -0.16030E-04  3054   0.882E-03    0.808E-02
RMM:   6    -0.231956519773E+04    0.87076E-04   -0.16760E-04  3958   0.876E-03    0.434E-02
RMM:   7    -0.231956520341E+04   -0.56761E-05   -0.70195E-05  2968   0.737E-03
   6 F= -.23409058E+04 E0= -.23409057E+04  d E =-.295366E-02  mag=     4.9986
       N       E                     dE             d eps       ncg     rms          rms(c)
DAV:   1    -0.231956192441E+04    0.32733E-02   -0.24678E-01  4608   0.513E-01    0.131E-01
RMM:   2    -0.231956544297E+04   -0.35186E-02   -0.36436E-02  6170   0.105E-01    0.163E-01
RMM:   3    -0.231956551195E+04   -0.68977E-04   -0.38894E-03  4833   0.423E-02    0.826E-02
RMM:   4    -0.231956546850E+04    0.43452E-04   -0.34840E-04  3185   0.936E-03    0.462E-02
RMM:   5    -0.231956546683E+04    0.16645E-05   -0.59070E-05  2952   0.574E-03
   7 F= -.23409061E+04 E0= -.23409060E+04  d E =-.329641E-02  mag=     4.9988
       N       E                     dE             d eps       ncg     rms          rms(c)
DAV:   1    -0.231956415023E+04    0.13183E-02   -0.26189E-01  4592   0.530E-01    0.136E-01
RMM:   2    -0.231956773710E+04   -0.35869E-02   -0.36901E-02  6278   0.108E-01    0.169E-01
RMM:   3    -0.231956780527E+04   -0.68162E-04   -0.39070E-03  4911   0.422E-02    0.978E-02
RMM:   4    -0.231956773345E+04    0.71819E-04   -0.37333E-04  3250   0.998E-03    0.632E-02
RMM:   5    -0.231956771131E+04    0.22132E-04   -0.71117E-05  2953   0.597E-03    0.502E-02
RMM:   6    -0.231956767866E+04    0.32657E-04   -0.84030E-05  3537   0.663E-03    0.227E-02
RMM:   7    -0.231956768161E+04   -0.29547E-05   -0.30498E-05  2933   0.573E-03
   8 F= -.23409084E+04 E0= -.23409083E+04  d E =-.225088E-02  mag=     4.9991
       N       E                     dE             d eps       ncg     rms          rms(c)
DAV:   1    -0.231956133120E+04    0.63475E-02   -0.55162E-01  4576   0.768E-01    0.205E-01
RMM:   2    -0.231956908538E+04   -0.77542E-02   -0.78377E-02  6160   0.157E-01    0.279E-01
RMM:   3    -0.231956903637E+04    0.49010E-04   -0.81797E-03  5478   0.631E-02    0.148E-01
RMM:   4    -0.231956887427E+04    0.16209E-03   -0.82098E-04  4019   0.142E-02    0.938E-02
RMM:   5    -0.231956881406E+04    0.60210E-04   -0.15103E-04  2984   0.807E-03    0.667E-02
RMM:   6    -0.231956876578E+04    0.48283E-04   -0.14404E-04  3935   0.827E-03    0.443E-02
RMM:   7    -0.231956875350E+04    0.12280E-04   -0.65645E-05  2970   0.753E-03    0.335E-02
RMM:   8    -0.231956874119E+04    0.12307E-04   -0.20792E-05  2912   0.398E-03    0.747E-03
RMM:   9    -0.231956874028E+04    0.91655E-06   -0.38029E-06  2834   0.304E-03
   9 F= -.23409095E+04 E0= -.23409094E+04  d E =-.336105E-02  mag=     4.9995
       N       E                     dE             d eps       ncg     rms          rms(c)
DAV:   1    -0.231956833584E+04    0.40536E-03   -0.82604E-02  4688   0.291E-01    0.898E-02
RMM:   2    -0.231957002669E+04   -0.16909E-02   -0.15171E-02  6256   0.632E-02    0.170E-01
RMM:   3    -0.231956982781E+04    0.19888E-03   -0.17333E-03  3599   0.261E-02    0.539E-02
RMM:   4    -0.231956981029E+04    0.17515E-04   -0.15915E-04  3030   0.660E-03    0.397E-02
RMM:   5    -0.231956980013E+04    0.10169E-04   -0.19195E-05  2881   0.322E-03    0.247E-02
RMM:   6    -0.231956979175E+04    0.83765E-05   -0.24063E-05  2982   0.340E-03
  10 F= -.23409106E+04 E0= -.23409105E+04  d E =-.110289E-02  mag=     4.9996
       N       E                     dE             d eps       ncg     rms          rms(c)
DAV:   1    -0.231955810876E+04    0.11691E-01   -0.74115E-01  4544   0.870E-01    0.266E-01
RMM:   2    -0.231957308393E+04   -0.14975E-01   -0.13521E-01  6142   0.187E-01    0.507E-01
RMM:   3    -0.231957145806E+04    0.16259E-02   -0.15782E-02  5587   0.819E-02    0.163E-01
RMM:   4    -0.231957128458E+04    0.17349E-03   -0.14070E-03  4328   0.165E-02    0.113E-01
RMM:   5    -0.231957120433E+04    0.80244E-04   -0.17277E-04  2987   0.819E-03    0.787E-02
RMM:   6    -0.231957112880E+04    0.75534E-04   -0.22292E-04  4287   0.912E-03    0.561E-02
RMM:   7    -0.231957112401E+04    0.47944E-05   -0.91621E-05  3030   0.855E-03
  11 F= -.23409121E+04 E0= -.23409120E+04  d E =-.259193E-02  mag=     4.9997
       N       E                     dE             d eps       ncg     rms          rms(c)
DAV:   1    -0.231956991251E+04    0.12163E-02   -0.12264E-01  4592   0.349E-01    0.118E-01
RMM:   2    -0.231957240518E+04   -0.24927E-02   -0.22745E-02  6279   0.775E-02    0.214E-01
RMM:   3    -0.231957211723E+04    0.28796E-03   -0.25736E-03  4081   0.314E-02    0.757E-02
RMM:   4    -0.231957206687E+04    0.50353E-04   -0.23206E-04  3027   0.803E-03    0.340E-02
RMM:   5    -0.231957207098E+04   -0.41107E-05   -0.51247E-05  2992   0.489E-03
  12 F= -.23409130E+04 E0= -.23409130E+04  d E =-.958838E-03  mag=     4.9997
       N       E                     dE             d eps       ncg     rms          rms(c)
DAV:   1    -0.231957112015E+04    0.94672E-03   -0.61304E-02  4664   0.248E-01    0.772E-02
RMM:   2    -0.231957220552E+04   -0.10854E-02   -0.11120E-02  6398   0.555E-02    0.943E-02
RMM:   3    -0.231957225122E+04   -0.45705E-04   -0.12676E-03  3261   0.220E-02    0.663E-02
RMM:   4    -0.231957220666E+04    0.44559E-04   -0.11077E-04  2986   0.647E-03    0.264E-02
RMM:   5    -0.231957219736E+04    0.93019E-05   -0.29472E-05  2957   0.418E-03
  13 F= -.23409132E+04 E0= -.23409131E+04  d E =-.109413E-02  mag=     4.9998
       N       E                     dE             d eps       ncg     rms          rms(c)
DAV:   1    -0.231957160565E+04    0.60101E-03   -0.66573E-02  4576   0.257E-01    0.849E-02
RMM:   2    -0.231957294194E+04   -0.13363E-02   -0.12824E-02  6360   0.581E-02    0.132E-01
RMM:   3    -0.231957289337E+04    0.48568E-04   -0.13667E-03  3361   0.228E-02    0.617E-02
RMM:   4    -0.231957285737E+04    0.36001E-04   -0.13018E-04  3002   0.659E-03    0.274E-02
RMM:   5    -0.231957285636E+04    0.10152E-05   -0.26408E-05  2940   0.364E-03
  14 F= -.23409139E+04 E0= -.23409138E+04  d E =-.680013E-03  mag=     4.9998
       N       E                     dE             d eps       ncg     rms          rms(c)
DAV:   1    -0.231956735879E+04    0.54986E-02   -0.32148E-01  4544   0.565E-01    0.184E-01
RMM:   2    -0.231957371356E+04   -0.63548E-02   -0.61539E-02  6289   0.125E-01    0.273E-01
RMM:   3    -0.231957357127E+04    0.14229E-03   -0.65171E-03  5358   0.500E-02    0.135E-01
RMM:   4    -0.231957339275E+04    0.17852E-03   -0.61650E-04  3286   0.117E-02    0.572E-02
RMM:   5    -0.231957339202E+04    0.72936E-06   -0.12160E-04  2989   0.712E-03    0.696E-02
RMM:   6    -0.231957333552E+04    0.56498E-04   -0.96893E-05  3153   0.720E-03    0.307E-02
RMM:   7    -0.231957333685E+04   -0.13239E-05   -0.43139E-05  2962   0.605E-03
  15 F= -.23409144E+04 E0= -.23409143E+04  d E =-.120844E-02  mag=     4.9998
       N       E                     dE             d eps       ncg     rms          rms(c)
DAV:   1    -0.231957227990E+04    0.10556E-02   -0.96009E-02  4576   0.302E-01    0.105E-01
RMM:   2    -0.231957436086E+04   -0.20810E-02   -0.20543E-02  6480   0.710E-02    0.142E-01
RMM:   3    -0.231957437007E+04   -0.92057E-05   -0.20275E-03  3790   0.265E-02    0.819E-02
RMM:   4    -0.231957431628E+04    0.53789E-04   -0.21202E-04  3012   0.758E-03    0.370E-02
RMM:   5    -0.231957430805E+04    0.82297E-05   -0.29830E-05  2929   0.373E-03
  16 F= -.23409153E+04 E0= -.23409152E+04  d E =-.927769E-03  mag=     4.9998
       N       E                     dE             d eps       ncg     rms          rms(c)
DAV:   1    -0.231955809377E+04    0.16223E-01   -0.86402E-01  4544   0.907E-01    0.304E-01
RMM:   2    -0.231957649503E+04   -0.18401E-01   -0.18246E-01  6392   0.208E-01    0.401E-01
RMM:   3    -0.231957680074E+04   -0.30571E-03   -0.18373E-02  5964   0.793E-02    0.234E-01
RMM:   4    -0.231957633632E+04    0.46442E-03   -0.18416E-03  4598   0.183E-02    0.110E-01
RMM:   5    -0.231957627406E+04    0.62256E-04   -0.24947E-04  3020   0.903E-03    0.928E-02
RMM:   6    -0.231957616723E+04    0.10683E-03   -0.21816E-04  4018   0.931E-03    0.577E-02
RMM:   7    -0.231957617166E+04   -0.44274E-05   -0.13719E-04  3035   0.875E-03    0.620E-02
RMM:   8    -0.231957614124E+04    0.30417E-04   -0.38788E-05  2926   0.521E-03    0.147E-02
RMM:   9    -0.231957613880E+04    0.24440E-05   -0.82023E-06  2918   0.343E-03
  17 F= -.23409170E+04 E0= -.23409169E+04  d E =-.263066E-02  mag=     4.9999
       N       E                     dE             d eps       ncg     rms          rms(c)
DAV:   1    -0.231950246501E+04    0.73676E-01   -0.34685E+00  4512   0.182E+00    0.620E-01
RMM:   2    -0.231957727975E+04   -0.74815E-01   -0.73631E-01  6367   0.420E-01    0.836E-01
RMM:   3    -0.231957792777E+04   -0.64802E-03   -0.75017E-02  6121   0.162E-01    0.477E-01
RMM:   4    -0.231957599402E+04    0.19338E-02   -0.75616E-03  5568   0.369E-02    0.229E-01
RMM:   5    -0.231957562619E+04    0.36783E-03   -0.10076E-03  4295   0.163E-02    0.173E-01
RMM:   6    -0.231957523989E+04    0.38629E-03   -0.79596E-04  4668   0.160E-02    0.112E-01
RMM:   7    -0.231957524965E+04   -0.97553E-05   -0.53952E-04  4214   0.155E-02    0.125E-01
RMM:   8    -0.231957512874E+04    0.12091E-03   -0.15180E-04  3442   0.781E-03    0.303E-02
RMM:   9    -0.231957511803E+04    0.10707E-04   -0.25288E-05  2958   0.527E-03    0.148E-02
RMM:  10    -0.231957511550E+04    0.25356E-05   -0.14397E-05  2908   0.303E-03
  18 F= -.23409158E+04 E0= -.23409157E+04  d E =-.136268E-02  mag=     4.9999
       N       E                     dE             d eps       ncg     rms          rms(c)
DAV:   1    -0.231954244476E+04    0.32673E-01   -0.16326E+00  4512   0.125E+00    0.423E-01
RMM:   2    -0.231957773686E+04   -0.35292E-01   -0.34510E-01  6350   0.286E-01    0.583E-01
RMM:   3    -0.231957774882E+04   -0.11962E-04   -0.35204E-02  6068   0.111E-01    0.316E-01
RMM:   4    -0.231957684467E+04    0.90415E-03   -0.34643E-03  5148   0.250E-02    0.140E-01
RMM:   5    -0.231957673223E+04    0.11243E-03   -0.43565E-04  3367   0.117E-02    0.120E-01
RMM:   6    -0.231957653624E+04    0.19599E-03   -0.37277E-04  4281   0.118E-02    0.707E-02
RMM:   7    -0.231957655604E+04   -0.19793E-04   -0.25386E-04  3502   0.111E-02    0.910E-02
RMM:   8    -0.231957649476E+04    0.61276E-04   -0.73483E-05  2943   0.617E-03    0.190E-02
RMM:   9    -0.231957649072E+04    0.40415E-05   -0.13662E-05  2934   0.399E-03
  19 F= -.23409173E+04 E0= -.23409172E+04  d E =-.290417E-02  mag=     4.9999
       N       E                     dE             d eps       ncg     rms          rms(c)
DAV:   1    -0.231957374409E+04    0.27507E-02   -0.17408E-01  4544   0.388E-01    0.141E-01
RMM:   2    -0.231957782322E+04   -0.40791E-02   -0.40202E-02  6419   0.952E-02    0.192E-01
RMM:   3    -0.231957784743E+04   -0.24217E-04   -0.40624E-03  4598   0.362E-02    0.106E-01
RMM:   4    -0.231957775630E+04    0.91135E-04   -0.40453E-04  3049   0.894E-03    0.520E-02
RMM:   5    -0.231957773673E+04    0.19562E-04   -0.48559E-05  2915   0.447E-03    0.379E-02
RMM:   6    -0.231957771729E+04    0.19443E-04   -0.41810E-05  2951   0.410E-03    0.271E-02
RMM:   7    -0.231957771715E+04    0.14031E-06   -0.28987E-05  2909   0.411E-03
  20 F= -.23409184E+04 E0= -.23409183E+04  d E =-.113335E-02  mag=     4.9999
       N       E                     dE             d eps       ncg     rms          rms(c)
DAV:   1    -0.231954352538E+04    0.34192E-01   -0.15660E+00  4512   0.116E+00    0.422E-01
RMM:   2    -0.231958006552E+04   -0.36540E-01   -0.36321E-01  6515   0.286E-01    0.543E-01
RMM:   3    -0.231958072463E+04   -0.65911E-03   -0.36694E-02  6184   0.107E-01    0.327E-01
RMM:   4    -0.231957984225E+04    0.88237E-03   -0.36765E-03  5201   0.247E-02    0.159E-01
RMM:   5    -0.231957966801E+04    0.17424E-03   -0.43196E-04  3162   0.106E-02    0.115E-01
RMM:   6    -0.231957949031E+04    0.17770E-03   -0.37642E-04  4331   0.111E-02    0.785E-02
RMM:   7    -0.231957950365E+04   -0.13331E-04   -0.25795E-04  3335   0.105E-02    0.969E-02
RMM:   8    -0.231957943660E+04    0.67049E-04   -0.70700E-05  2940   0.623E-03    0.246E-02
RMM:   9    -0.231957942993E+04    0.66690E-05   -0.16119E-05  2939   0.404E-03
  21 F= -.23409199E+04 E0= -.23409198E+04  d E =-.256810E-02  mag=     4.9999
       N       E                     dE             d eps       ncg     rms          rms(c)
DAV:   1    -0.231957392283E+04    0.55138E-02   -0.29279E-01  4544   0.482E-01    0.180E-01
RMM:   2    -0.231958049620E+04   -0.65734E-02   -0.65871E-02  6451   0.121E-01    0.227E-01
RMM:   3    -0.231958065637E+04   -0.16017E-03   -0.68345E-03  5331   0.474E-02    0.146E-01
RMM:   4    -0.231958045181E+04    0.20456E-03   -0.66416E-04  3115   0.110E-02    0.649E-02
RMM:   5    -0.231958043139E+04    0.20425E-04   -0.98921E-05  2961   0.581E-03    0.559E-02
RMM:   6    -0.231958038560E+04    0.45784E-04   -0.88342E-05  2983   0.559E-03    0.281E-02
RMM:   7    -0.231958039179E+04   -0.61914E-05   -0.42508E-05  2970   0.498E-03
  22 F= -.23409208E+04 E0= -.23409208E+04  d E =-.987242E-03  mag=     5.0000
       N       E                     dE             d eps       ncg     rms          rms(c)
DAV:   1    -0.231957965101E+04    0.73460E-03   -0.34358E-02  4688   0.165E-01    0.616E-02
RMM:   2    -0.231958040846E+04   -0.75746E-03   -0.78156E-03  6325   0.428E-02    0.669E-02
RMM:   3    -0.231958044434E+04   -0.35878E-04   -0.78956E-04  3045   0.164E-02    0.496E-02
RMM:   4    -0.231958042152E+04    0.22823E-04   -0.79783E-05  2990   0.515E-03    0.246E-02
RMM:   5    -0.231958041901E+04    0.25052E-05   -0.13593E-05  2783   0.224E-03
  23 F= -.23409209E+04 E0= -.23409208E+04  d E =-.102327E-02  mag=     5.0000
       N       E                     dE             d eps       ncg     rms          rms(c)
DAV:   1    -0.231957731835E+04    0.31032E-02   -0.17452E-01  4544   0.380E-01    0.137E-01
RMM:   2    -0.231958138510E+04   -0.40667E-02   -0.40368E-02  6365   0.956E-02    0.182E-01
RMM:   3    -0.231958145514E+04   -0.70042E-04   -0.41461E-03  4543   0.370E-02    0.107E-01
RMM:   4    -0.231958134356E+04    0.11159E-03   -0.39252E-04  3052   0.903E-03    0.474E-02
RMM:   5    -0.231958133414E+04    0.94158E-05   -0.54731E-05  2934   0.463E-03
  24 F= -.23409218E+04 E0= -.23409217E+04  d E =-.927134E-03  mag=     5.0000
       N       E                     dE             d eps       ncg     rms          rms(c)
DAV:   1    -0.231956760737E+04    0.13736E-01   -0.62152E-01  4512   0.717E-01    0.258E-01
RMM:   2    -0.231958204028E+04   -0.14433E-01   -0.14426E-01  6517   0.180E-01    0.333E-01
RMM:   3    -0.231958239800E+04   -0.35772E-03   -0.14758E-02  5814   0.677E-02    0.206E-01
RMM:   4    -0.231958198855E+04    0.40945E-03   -0.14001E-03  3669   0.156E-02    0.914E-02
RMM:   5    -0.231958195393E+04    0.34617E-04   -0.19629E-04  2997   0.794E-03    0.827E-02
RMM:   6    -0.231958185262E+04    0.10131E-03   -0.18809E-04  3634   0.863E-03    0.381E-02
RMM:   7    -0.231958184796E+04    0.46545E-05   -0.73137E-05  3021   0.688E-03
  25 F= -.23409223E+04 E0= -.23409223E+04  d E =-.146249E-02  mag=     5.0000
       N       E                     dE             d eps       ncg     rms          rms(c)
DAV:   1    -0.231957897703E+04    0.28756E-02   -0.17693E-01  4512   0.393E-01    0.141E-01
RMM:   2    -0.231958291778E+04   -0.39408E-02   -0.38819E-02  6520   0.963E-02    0.192E-01
RMM:   3    -0.231958294445E+04   -0.26666E-04   -0.40605E-03  4640   0.369E-02    0.110E-01
RMM:   4    -0.231958282618E+04    0.11827E-03   -0.37982E-04  3045   0.916E-03    0.443E-02
RMM:   5    -0.231958282037E+04    0.58144E-05   -0.56673E-05  2949   0.485E-03
  26 F= -.23409233E+04 E0= -.23409232E+04  d E =-.947161E-03  mag=     5.0000
       N       E                     dE             d eps       ncg     rms          rms(c)
DAV:   1    -0.231955521888E+04    0.27607E-01   -0.13318E+00  4512   0.108E+00    0.379E-01
RMM:   2    -0.231958525199E+04   -0.30033E-01   -0.29017E-01  6405   0.259E-01    0.561E-01
RMM:   3    -0.231958488116E+04    0.37083E-03   -0.31189E-02  6017   0.102E-01    0.274E-01
RMM:   4    -0.231958413239E+04    0.74877E-03   -0.28232E-03  5077   0.224E-02    0.121E-01
RMM:   5    -0.231958408442E+04    0.47974E-04   -0.41379E-04  3464   0.111E-02    0.127E-01
RMM:   6    -0.231958388965E+04    0.19477E-03   -0.36206E-04  4271   0.114E-02    0.600E-02
RMM:   7    -0.231958390535E+04   -0.15698E-04   -0.16019E-04  3105   0.940E-03    0.604E-02
RMM:   8    -0.231958387092E+04    0.34427E-04   -0.49578E-05  2911   0.565E-03    0.192E-02
RMM:   9    -0.231958386730E+04    0.36260E-05   -0.92481E-06  2898   0.339E-03
  27 F= -.23409243E+04 E0= -.23409242E+04  d E =-.191970E-02  mag=     5.0000
       N       E                     dE             d eps       ncg     rms          rms(c)
DAV:   1    -0.231957826284E+04    0.56081E-02   -0.31764E-01  4512   0.513E-01    0.179E-01
RMM:   2    -0.231958545025E+04   -0.71874E-02   -0.68551E-02  6338   0.123E-01    0.292E-01
RMM:   3    -0.231958518034E+04    0.26991E-03   -0.74569E-03  5332   0.500E-02    0.119E-01
RMM:   4    -0.231958505159E+04    0.12875E-03   -0.67972E-04  3122   0.108E-02    0.598E-02
RMM:   5    -0.231958503999E+04    0.11598E-04   -0.92061E-05  2952   0.582E-03    0.651E-02
RMM:   6    -0.231958499455E+04    0.45438E-04   -0.81024E-05  2998   0.561E-03    0.319E-02
RMM:   7    -0.231958499887E+04   -0.43173E-05   -0.42164E-05  2937   0.514E-03
  28 F= -.23409253E+04 E0= -.23409252E+04  d E =-.103307E-02  mag=     5.0000
       N       E                     dE             d eps       ncg     rms          rms(c)
DAV:   1    -0.231958050992E+04    0.44846E-02   -0.22283E-01  4512   0.431E-01    0.152E-01
RMM:   2    -0.231958558551E+04   -0.50756E-02   -0.48586E-02  6506   0.104E-01    0.246E-01
RMM:   3    -0.231958539798E+04    0.18753E-03   -0.52615E-03  4842   0.413E-02    0.102E-01
RMM:   4    -0.231958530552E+04    0.92458E-04   -0.47894E-04  3080   0.956E-03    0.508E-02
RMM:   5    -0.231958529707E+04    0.84491E-05   -0.68083E-05  2943   0.508E-03
  29 F= -.23409255E+04 E0= -.23409254E+04  d E =-.124758E-02  mag=     5.0000
       N       E                     dE             d eps       ncg     rms          rms(c)
DAV:   1    -0.231958272655E+04    0.25790E-02   -0.15903E-01  4544   0.372E-01    0.119E-01
RMM:   2    -0.231958617429E+04   -0.34477E-02   -0.34483E-02  6457   0.887E-02    0.159E-01
RMM:   3    -0.231958629034E+04   -0.11605E-03   -0.38718E-03  4238   0.360E-02    0.912E-02
RMM:   4    -0.231958621271E+04    0.77628E-04   -0.33165E-04  3048   0.855E-03    0.438E-02
RMM:   5    -0.231958620423E+04    0.84763E-05   -0.57617E-05  2940   0.485E-03
  30 F= -.23409263E+04 E0= -.23409262E+04  d E =-.793203E-03  mag=     5.0000
       N       E                     dE             d eps       ncg     rms          rms(c)
DAV:   1    -0.231956681822E+04    0.19394E-01   -0.93540E-01  4504   0.901E-01    0.303E-01
RMM:   2    -0.231958802755E+04   -0.21209E-01   -0.20565E-01  6449   0.215E-01    0.468E-01
RMM:   3    -0.231958766843E+04    0.35912E-03   -0.22178E-02  5977   0.852E-02    0.207E-01
RMM:   4    -0.231958729006E+04    0.37837E-03   -0.19989E-03  4311   0.184E-02    0.108E-01
RMM:   5    -0.231958723916E+04    0.50910E-04   -0.25669E-04  3068   0.883E-03    0.108E-01
RMM:   6    -0.231958710710E+04    0.13206E-03   -0.25463E-04  3969   0.955E-03    0.566E-02
RMM:   7    -0.231958712174E+04   -0.14639E-04   -0.13852E-04  3034   0.830E-03    0.574E-02
RMM:   8    -0.231958708410E+04    0.37635E-04   -0.41385E-05  2931   0.540E-03    0.113E-02
RMM:   9    -0.231958708237E+04    0.17345E-05   -0.64498E-06  2875   0.320E-03
  31 F= -.23409269E+04 E0= -.23409268E+04  d E =-.139290E-02  mag=     5.0000
       N       E                     dE             d eps       ncg     rms          rms(c)
DAV:   1    -0.231958542938E+04    0.16547E-02   -0.11442E-01  4608   0.319E-01    0.108E-01
RMM:   2    -0.231958792904E+04   -0.24997E-02   -0.24145E-02  6401   0.763E-02    0.162E-01
RMM:   3    -0.231958788752E+04    0.41528E-04   -0.26156E-03  4002   0.304E-02    0.758E-02
RMM:   4    -0.231958783461E+04    0.52902E-04   -0.23879E-04  3031   0.772E-03    0.383E-02
RMM:   5    -0.231958782798E+04    0.66371E-05   -0.32396E-05  2928   0.389E-03
  32 F= -.23409276E+04 E0= -.23409275E+04  d E =-.681056E-03  mag=     5.0000
       N       E                     dE             d eps       ncg     rms          rms(c)
DAV:   1    -0.231956758296E+04    0.20252E-01   -0.10237E+00  4504   0.955E-01    0.321E-01
RMM:   2    -0.231958968318E+04   -0.22100E-01   -0.21544E-01  6421   0.227E-01    0.471E-01
RMM:   3    -0.231958952620E+04    0.15698E-03   -0.23549E-02  6012   0.889E-02    0.227E-01
RMM:   4    -0.231958906049E+04    0.46572E-03   -0.21488E-03  4805   0.197E-02    0.121E-01
RMM:   5    -0.231958898721E+04    0.73275E-04   -0.29650E-04  3050   0.967E-03    0.107E-01
RMM:   6    -0.231958885010E+04    0.13711E-03   -0.30550E-04  4333   0.106E-02    0.597E-02
RMM:   7    -0.231958886215E+04   -0.12052E-04   -0.14378E-04  3041   0.905E-03    0.592E-02
RMM:   8    -0.231958882084E+04    0.41310E-04   -0.46203E-05  2934   0.543E-03    0.117E-02
RMM:   9    -0.231958881835E+04    0.24893E-05   -0.73289E-06  2888   0.357E-03
  33 F= -.23409284E+04 E0= -.23409283E+04  d E =-.147235E-02  mag=     5.0000
       N       E                     dE             d eps       ncg     rms          rms(c)
DAV:   1    -0.231958602288E+04    0.27980E-02   -0.18787E-01  4512   0.403E-01    0.135E-01
RMM:   2    -0.231958970051E+04   -0.36776E-02   -0.36494E-02  6296   0.955E-02    0.182E-01
RMM:   3    -0.231958973604E+04   -0.35536E-04   -0.40141E-03  4693   0.385E-02    0.101E-01
RMM:   4    -0.231958963285E+04    0.10319E-03   -0.35921E-04  3061   0.902E-03    0.499E-02
RMM:   5    -0.231958962384E+04    0.90083E-05   -0.64080E-05  2940   0.510E-03
  34 F= -.23409292E+04 E0= -.23409291E+04  d E =-.781225E-03  mag=     5.0000
       N       E                     dE             d eps       ncg     rms          rms(c)
DAV:   1    -0.231958816083E+04    0.14720E-02   -0.81287E-02  4576   0.266E-01    0.882E-02
RMM:   2    -0.231958970301E+04   -0.15422E-02   -0.15701E-02  6486   0.633E-02    0.113E-01
RMM:   3    -0.231958975729E+04   -0.54283E-04   -0.18172E-03  3447   0.252E-02    0.662E-02
RMM:   4    -0.231958971750E+04    0.39793E-04   -0.15400E-04  3011   0.680E-03    0.309E-02
RMM:   5    -0.231958971336E+04    0.41405E-05   -0.45617E-05  2937   0.465E-03
  35 F= -.23409292E+04 E0= -.23409291E+04  d E =-.853867E-03  mag=     5.0000
       N       E                     dE             d eps       ncg     rms          rms(c)
DAV:   1    -0.231958800037E+04    0.17171E-02   -0.12343E-01  4512   0.332E-01    0.107E-01
RMM:   2    -0.231959024972E+04   -0.22493E-02   -0.23284E-02  6442   0.795E-02    0.116E-01
RMM:   3    -0.231959036760E+04   -0.11788E-03   -0.25427E-03  3927   0.301E-02    0.831E-02
RMM:   4    -0.231959029917E+04    0.68424E-04   -0.22186E-04  3021   0.797E-03    0.380E-02
RMM:   5    -0.231959029584E+04    0.33312E-05   -0.48076E-05  2924   0.466E-03
  36 F= -.23409298E+04 E0= -.23409297E+04  d E =-.537592E-03  mag=     5.0000
       N       E                     dE             d eps       ncg     rms          rms(c)
DAV:   1    -0.231958886850E+04    0.14307E-02   -0.84186E-02  4512   0.274E-01    0.886E-02
RMM:   2    -0.231959038942E+04   -0.15209E-02   -0.15691E-02  6461   0.652E-02    0.102E-01
RMM:   3    -0.231959046291E+04   -0.73490E-04   -0.17842E-03  3479   0.253E-02    0.674E-02
RMM:   4    -0.231959042041E+04    0.42500E-04   -0.14991E-04  3010   0.693E-03    0.309E-02
RMM:   5    -0.231959041659E+04    0.38210E-05   -0.40611E-05  2922   0.450E-03
  37 F= -.23409299E+04 E0= -.23409298E+04  d E =-.620546E-03  mag=     5.0000
       N       E                     dE             d eps       ncg     rms          rms(c)
DAV:   1    -0.231959036105E+04    0.59357E-04   -0.27460E-02  4640   0.165E-01    0.527E-02
RMM:   2    -0.231959075673E+04   -0.39567E-03   -0.41779E-03  6174   0.383E-02    0.451E-02
RMM:   3    -0.231959079077E+04   -0.34042E-04   -0.47655E-04  3091   0.154E-02    0.480E-02
RMM:   4    -0.231959077419E+04    0.16574E-04   -0.42798E-05  2934   0.459E-03    0.176E-02
RMM:   5    -0.231959077679E+04   -0.26001E-05   -0.12945E-05  2909   0.254E-03
  38 F= -.23409302E+04 E0= -.23409301E+04  d E =-.343824E-03  mag=     5.0000
       N       E                     dE             d eps       ncg     rms          rms(c)
DAV:   1    -0.231958933790E+04    0.14363E-02   -0.12274E-01  4512   0.347E-01    0.114E-01
RMM:   2    -0.231959120984E+04   -0.18719E-02   -0.18535E-02  6042   0.767E-02    0.133E-01
RMM:   3    -0.231959125717E+04   -0.47334E-04   -0.20116E-03  4084   0.314E-02    0.970E-02
RMM:   4    -0.231959114864E+04    0.10853E-03   -0.18314E-04  3013   0.838E-03    0.352E-02
RMM:   5    -0.231959115139E+04   -0.27464E-05   -0.58081E-05  2951   0.552E-03
  39 F= -.23409305E+04 E0= -.23409305E+04  d E =-.683878E-03  mag=     5.0000
       N       E                     dE             d eps       ncg     rms          rms(c)
DAV:   1    -0.231959092718E+04    0.22146E-03   -0.51400E-02  4512   0.207E-01    0.654E-02
RMM:   2    -0.231959149530E+04   -0.56812E-03   -0.60618E-03  6277   0.452E-02    0.740E-02
RMM:   3    -0.231959151806E+04   -0.22758E-04   -0.72130E-04  3125   0.175E-02    0.581E-02
RMM:   4    -0.231959148417E+04    0.33896E-04   -0.69348E-05  2963   0.570E-03    0.240E-02
RMM:   5    -0.231959148770E+04   -0.35343E-05   -0.31120E-05  2967   0.359E-03
  40 F= -.23409309E+04 E0= -.23409308E+04  d E =-.311109E-03  mag=     5.0000
       N       E                     dE             d eps       ncg     rms          rms(c)
DAV:   1    -0.231959147427E+04    0.98930E-05   -0.47272E-04  5176   0.210E-02    0.139E-02
RMM:   2    -0.231959149663E+04   -0.22357E-04   -0.80304E-05  3104   0.547E-03    0.430E-02
RMM:   3    -0.231959147892E+04    0.17708E-04   -0.15015E-05  2714   0.352E-03    0.535E-03
RMM:   4    -0.231959147894E+04   -0.17957E-07   -0.16360E-06  2110   0.110E-03
  41 F= -.23409308E+04 E0= -.23409308E+04  d E =-.299916E-03  mag=     5.0000
       N       E                     dE             d eps       ncg     rms          rms(c)
DAV:   1    -0.231959147511E+04    0.38119E-05   -0.34234E-02  4528   0.181E-01    0.540E-02
RMM:   2    -0.231959189601E+04   -0.42090E-03   -0.40127E-03  6005   0.370E-02    0.702E-02
RMM:   3    -0.231959188278E+04    0.13235E-04   -0.42129E-04  3064   0.149E-02    0.416E-02
RMM:   4    -0.231959186518E+04    0.17598E-04   -0.44448E-05  2976   0.440E-03    0.206E-02
RMM:   5    -0.231959186302E+04    0.21592E-05   -0.10884E-05  2831   0.246E-03
  42 F= -.23409312E+04 E0= -.23409311E+04  d E =-.317316E-03  mag=     5.0000
       N       E                     dE             d eps       ncg     rms          rms(c)
DAV:   1    -0.231958900892E+04    0.28563E-02   -0.29895E-01  4496   0.535E-01    0.156E-01
RMM:   2    -0.231959254986E+04   -0.35409E-02   -0.35064E-02  6005   0.110E-01    0.174E-01
RMM:   3    -0.231959260679E+04   -0.56925E-04   -0.35395E-03  4897   0.424E-02    0.130E-01
RMM:   4    -0.231959241917E+04    0.18762E-03   -0.36799E-04  3137   0.108E-02    0.576E-02
RMM:   5    -0.231959240708E+04    0.12087E-04   -0.91613E-05  2969   0.693E-03    0.529E-02
RMM:   6    -0.231959236988E+04    0.37206E-04   -0.98413E-05  3557   0.725E-03    0.243E-02
RMM:   7    -0.231959237308E+04   -0.32000E-05   -0.30375E-05  2924   0.568E-03
  43 F= -.23409315E+04 E0= -.23409314E+04  d E =-.630402E-03  mag=     5.0000
       N       E                     dE             d eps       ncg     rms          rms(c)
DAV:   1    -0.231959231161E+04    0.58270E-04   -0.49271E-02  4512   0.210E-01    0.613E-02
RMM:   2    -0.231959280974E+04   -0.49814E-03   -0.50397E-03  6107   0.424E-02    0.688E-02
RMM:   3    -0.231959281659E+04   -0.68531E-05   -0.49483E-04  3155   0.163E-02    0.536E-02
RMM:   4    -0.231959278695E+04    0.29643E-04   -0.58381E-05  2975   0.513E-03    0.217E-02
RMM:   5    -0.231959278657E+04    0.38606E-06   -0.15854E-05  2918   0.289E-03
  44 F= -.23409318E+04 E0= -.23409318E+04  d E =-.360124E-03  mag=     5.0000
       N       E                     dE             d eps       ncg     rms          rms(c)
DAV:   1    -0.231959249364E+04    0.29331E-03   -0.47687E-02  4512   0.206E-01    0.591E-02
RMM:   2    -0.231959297183E+04   -0.47819E-03   -0.48298E-03  6024   0.413E-02    0.682E-02
RMM:   3    -0.231959297389E+04   -0.20619E-05   -0.48186E-04  3103   0.159E-02    0.497E-02
RMM:   4    -0.231959294798E+04    0.25908E-04   -0.55387E-05  2982   0.489E-03    0.220E-02
RMM:   5    -0.231959294901E+04   -0.10237E-05   -0.17932E-05  2895   0.296E-03
  45 F= -.23409319E+04 E0= -.23409319E+04  d E =-.469987E-03  mag=     5.0000
       N       E                     dE             d eps       ncg     rms          rms(c)
DAV:   1    -0.231959286452E+04    0.83459E-04   -0.59324E-02  4512   0.234E-01    0.716E-02
RMM:   2    -0.231959342878E+04   -0.56425E-03   -0.56734E-03  6023   0.473E-02    0.771E-02
RMM:   3    -0.231959344089E+04   -0.12110E-04   -0.58004E-04  3386   0.192E-02    0.621E-02
RMM:   4    -0.231959339890E+04    0.41990E-04   -0.62213E-05  2964   0.588E-03    0.217E-02
RMM:   5    -0.231959340242E+04   -0.35279E-05   -0.27891E-05  2927   0.403E-03
  46 F= -.23409324E+04 E0= -.23409323E+04  d E =-.468463E-03  mag=     5.0000
       N       E                     dE             d eps       ncg     rms          rms(c)
DAV:   1    -0.231959238865E+04    0.10102E-02   -0.13449E-01  4496   0.353E-01    0.107E-01
RMM:   2    -0.231959365765E+04   -0.12690E-02   -0.12868E-02  6069   0.717E-02    0.109E-01
RMM:   3    -0.231959370771E+04   -0.50062E-04   -0.12961E-03  3911   0.285E-02    0.970E-02
RMM:   4    -0.231959360279E+04    0.10493E-03   -0.14096E-04  3000   0.837E-03    0.326E-02
RMM:   5    -0.231959360788E+04   -0.50928E-05   -0.61057E-05  2968   0.594E-03
  47 F= -.23409326E+04 E0= -.23409326E+04  d E =-.696745E-03  mag=     5.0000
       N       E                     dE             d eps       ncg     rms          rms(c)
DAV:   1    -0.231959353164E+04    0.71149E-04   -0.30600E-02  4560   0.163E-01    0.513E-02
RMM:   2    -0.231959387080E+04   -0.33916E-03   -0.34318E-03  6300   0.366E-02    0.620E-02
RMM:   3    -0.231959388105E+04   -0.10249E-04   -0.40877E-04  3033   0.142E-02    0.432E-02
RMM:   4    -0.231959386577E+04    0.15281E-04   -0.34256E-05  2960   0.449E-03    0.159E-02
RMM:   5    -0.231959387040E+04   -0.46299E-05   -0.14805E-05  2933   0.275E-03
  48 F= -.23409329E+04 E0= -.23409328E+04  d E =-.268264E-03  mag=     5.0000
       N       E                     dE             d eps       ncg     rms          rms(c)
DAV:   1    -0.231959200870E+04    0.18571E-02   -0.20155E-01  4496   0.417E-01    0.127E-01
RMM:   2    -0.231959428950E+04   -0.22808E-02   -0.22407E-02  6081   0.861E-02    0.158E-01
RMM:   3    -0.231959429193E+04   -0.24297E-05   -0.23267E-03  4366   0.342E-02    0.110E-01
RMM:   4    -0.231959416159E+04    0.13033E-03   -0.22470E-04  3040   0.909E-03    0.426E-02
RMM:   5    -0.231959416719E+04   -0.55952E-05   -0.71595E-05  2963   0.581E-03
  49 F= -.23409332E+04 E0= -.23409331E+04  d E =-.579957E-03  mag=     5.0000
       N       E                     dE             d eps       ncg     rms          rms(c)
DAV:   1    -0.231959395868E+04    0.20291E-03   -0.60229E-02  4512   0.222E-01    0.706E-02
RMM:   2    -0.231959449572E+04   -0.53704E-03   -0.57274E-03  6246   0.470E-02    0.703E-02
RMM:   3    -0.231959452612E+04   -0.30392E-04   -0.63037E-04  3296   0.181E-02    0.650E-02
RMM:   4    -0.231959448691E+04    0.39208E-04   -0.64527E-05  2964   0.590E-03    0.216E-02
RMM:   5    -0.231959448648E+04    0.42959E-06   -0.32964E-05  2941   0.426E-03
  50 F= -.23409335E+04 E0= -.23409334E+04  d E =-.234961E-03  mag=     5.0000
       N       E                     dE             d eps       ncg     rms          rms(c)
DAV:   1    -0.231959448122E+04    0.56853E-05   -0.13477E-03  4848   0.338E-02    0.128E-02
RMM:   2    -0.231959449698E+04   -0.15755E-04   -0.14006E-04  3265   0.803E-03    0.188E-02
RMM:   3    -0.231959449432E+04    0.26570E-05   -0.16688E-05  2861   0.480E-03
  51 F= -.23409334E+04 E0= -.23409334E+04  d E =-.230046E-03  mag=     5.0000
       N       E                     dE             d eps       ncg     rms          rms(c)
DAV:   1    -0.231959447348E+04    0.23496E-04   -0.32590E-02  4512   0.163E-01    0.518E-02
RMM:   2    -0.231959482659E+04   -0.35311E-03   -0.33575E-03  6009   0.339E-02    0.721E-02
RMM:   3    -0.231959480739E+04    0.19203E-04   -0.33437E-04  3030   0.137E-02    0.383E-02
RMM:   4    -0.231959479394E+04    0.13451E-04   -0.37488E-05  2950   0.419E-03    0.217E-02
RMM:   5    -0.231959479336E+04    0.57256E-06   -0.13598E-05  2852   0.258E-03
  52 F= -.23409337E+04 E0= -.23409336E+04  d E =-.243674E-03  mag=     5.0000
       N       E                     dE             d eps       ncg     rms          rms(c)
DAV:   1    -0.231959393206E+04    0.86188E-03   -0.11071E-01  4496   0.300E-01    0.920E-02
RMM:   2    -0.231959504928E+04   -0.11172E-02   -0.11276E-02  6015   0.624E-02    0.103E-01
RMM:   3    -0.231959507497E+04   -0.25692E-04   -0.11532E-03  3726   0.248E-02    0.754E-02
RMM:   4    -0.231959502014E+04    0.54838E-04   -0.11587E-04  2981   0.717E-03    0.305E-02
RMM:   5    -0.231959502776E+04   -0.76236E-05   -0.48097E-05  2950   0.509E-03
  53 F= -.23409338E+04 E0= -.23409337E+04  d E =-.375782E-03  mag=     5.0000
       N       E                     dE             d eps       ncg     rms          rms(c)
DAV:   1    -0.231959484612E+04    0.17402E-03   -0.45031E-02  4512   0.193E-01    0.626E-02
RMM:   2    -0.231959535373E+04   -0.50761E-03   -0.50263E-03  6267   0.428E-02    0.820E-02
RMM:   3    -0.231959534921E+04    0.45115E-05   -0.54526E-04  3186   0.161E-02    0.490E-02
RMM:   4    -0.231959533283E+04    0.16381E-04   -0.53859E-05  2962   0.518E-03    0.241E-02
RMM:   5    -0.231959533416E+04   -0.13215E-05   -0.18079E-05  2910   0.298E-03
  54 F= -.23409341E+04 E0= -.23409340E+04  d E =-.278657E-03  mag=     5.0000
       N       E                     dE             d eps       ncg     rms          rms(c)
DAV:   1    -0.231959432173E+04    0.10111E-02   -0.11483E-01  4496   0.307E-01    0.968E-02
RMM:   2    -0.231959558534E+04   -0.12636E-02   -0.12649E-02  6048   0.648E-02    0.112E-01
RMM:   3    -0.231959560425E+04   -0.18910E-04   -0.13200E-03  3779   0.259E-02    0.793E-02
RMM:   4    -0.231959554753E+04    0.56715E-04   -0.13614E-04  2994   0.735E-03    0.374E-02
RMM:   5    -0.231959554673E+04    0.80696E-06   -0.42206E-05  2939   0.446E-03
  55 F= -.23409343E+04 E0= -.23409342E+04  d E =-.447191E-03  mag=     5.0000
       N       E                     dE             d eps       ncg     rms          rms(c)
DAV:   1    -0.231959527361E+04    0.27392E-03   -0.53946E-02  4512   0.204E-01    0.681E-02
RMM:   2    -0.231959585740E+04   -0.58378E-03   -0.60633E-03  6231   0.453E-02    0.845E-02
RMM:   3    -0.231959586235E+04   -0.49549E-05   -0.64391E-04  3204   0.173E-02    0.551E-02
RMM:   4    -0.231959583868E+04    0.23674E-04   -0.66479E-05  2984   0.541E-03    0.222E-02
RMM:   5    -0.231959584992E+04   -0.11240E-04   -0.26289E-05  2939   0.345E-03    0.419E-02
RMM:   6    -0.231959583135E+04    0.18568E-04   -0.20285E-05  2900   0.350E-03    0.525E-03
RMM:   7    -0.231959583154E+04   -0.18999E-06   -0.34668E-06  2833   0.222E-03
  56 F= -.23409345E+04 E0= -.23409344E+04  d E =-.241591E-03  mag=     5.0000
       N       E                     dE             d eps       ncg     rms          rms(c)
DAV:   1    -0.231959582184E+04    0.95116E-05   -0.22809E-03  4792   0.418E-02    0.137E-02
RMM:   2    -0.231959584691E+04   -0.25077E-04   -0.25623E-04  3572   0.979E-03    0.146E-02
RMM:   3    -0.231959584792E+04   -0.10105E-05   -0.28142E-05  2877   0.540E-03
  57 F= -.23409345E+04 E0= -.23409344E+04  d E =-.249151E-03  mag=     5.0000
       N       E                     dE             d eps       ncg     rms          rms(c)
DAV:   1    -0.231959579368E+04    0.53230E-04   -0.28934E-02  4512   0.160E-01    0.563E-02
RMM:   2    -0.231959613223E+04   -0.33855E-03   -0.33280E-03  6009   0.349E-02    0.631E-02
RMM:   3    -0.231959612774E+04    0.44836E-05   -0.33356E-04  3052   0.140E-02    0.431E-02
RMM:   4    -0.231959610956E+04    0.18185E-04   -0.38356E-05  2968   0.446E-03    0.181E-02
RMM:   5    -0.231959611015E+04   -0.59018E-06   -0.13440E-05  2898   0.282E-03
  58 F= -.23409348E+04 E0= -.23409347E+04  d E =-.244269E-03  mag=     5.0000
       N       E                     dE             d eps       ncg     rms          rms(c)
DAV:   1    -0.231959547749E+04    0.63207E-03   -0.69918E-02  4496   0.248E-01    0.866E-02
RMM:   2    -0.231959627347E+04   -0.79598E-03   -0.79828E-03  6031   0.542E-02    0.957E-02
RMM:   3    -0.231959628073E+04   -0.72602E-05   -0.82937E-04  3586   0.214E-02    0.703E-02
RMM:   4    -0.231959623566E+04    0.45073E-04   -0.84637E-05  2972   0.662E-03    0.238E-02
RMM:   5    -0.231959624063E+04   -0.49768E-05   -0.33163E-05  2954   0.453E-03
  59 F= -.23409349E+04 E0= -.23409348E+04  d E =-.346585E-03  mag=     5.0000
       N       E                     dE             d eps       ncg     rms          rms(c)
DAV:   1    -0.231959598893E+04    0.24673E-03   -0.40436E-02  4512   0.179E-01    0.608E-02
RMM:   2    -0.231959650604E+04   -0.51711E-03   -0.49384E-03  6240   0.408E-02    0.848E-02
RMM:   3    -0.231959648375E+04    0.22297E-04   -0.51900E-04  3085   0.152E-02    0.473E-02
RMM:   4    -0.231959646478E+04    0.18970E-04   -0.55152E-05  2959   0.499E-03    0.278E-02
RMM:   5    -0.231959646162E+04    0.31525E-05   -0.17235E-05  2899   0.283E-03
  60 F= -.23409351E+04 E0= -.23409350E+04  d E =-.190374E-03  mag=     5.0000
       N       E                     dE             d eps       ncg     rms          rms(c)
DAV:   1    -0.231959631646E+04    0.14832E-03   -0.16356E-02  4576   0.114E-01    0.375E-02
RMM:   2    -0.231959650624E+04   -0.18978E-03   -0.19829E-03  5981   0.252E-02    0.365E-02
RMM:   3    -0.231959651805E+04   -0.11816E-04   -0.21335E-04  2938   0.102E-02    0.343E-02
RMM:   4    -0.231959650837E+04    0.96802E-05   -0.20602E-05  2929   0.319E-03
  61 F= -.23409351E+04 E0= -.23409350E+04  d E =-.217478E-03  mag=     5.0000
       N       E                     dE             d eps       ncg     rms          rms(c)
DAV:   1    -0.231959649375E+04    0.24308E-04   -0.23924E-02  4512   0.140E-01    0.470E-02
RMM:   2    -0.231959676469E+04   -0.27094E-03   -0.28959E-03  6029   0.304E-02    0.378E-02
RMM:   3    -0.231959679038E+04   -0.25686E-04   -0.30658E-04  2960   0.123E-02    0.452E-02
RMM:   4    -0.231959677237E+04    0.18009E-04   -0.33687E-05  2955   0.383E-03    0.153E-02
RMM:   5    -0.231959677432E+04   -0.19508E-05   -0.12174E-05  2847   0.236E-03
  62 F= -.23409353E+04 E0= -.23409352E+04  d E =-.219186E-03  mag=     5.0000
       N       E                     dE             d eps       ncg     rms          rms(c)
DAV:   1    -0.231959653630E+04    0.23607E-03   -0.31232E-02  4504   0.160E-01    0.546E-02
RMM:   2    -0.231959689655E+04   -0.36025E-03   -0.37961E-03  6051   0.355E-02    0.522E-02
RMM:   3    -0.231959691953E+04   -0.22984E-04   -0.40641E-04  2999   0.140E-02    0.499E-02
RMM:   4    -0.231959689884E+04    0.20696E-04   -0.41186E-05  2950   0.442E-03    0.156E-02
RMM:   5    -0.231959689809E+04    0.74606E-06   -0.14809E-05  2927   0.282E-03
  63 F= -.23409354E+04 E0= -.23409353E+04  d E =-.289590E-03  mag=     5.0000
       N       E                     dE             d eps       ncg     rms          rms(c)
DAV:   1    -0.231959687320E+04    0.25641E-04   -0.18929E-02  4544   0.128E-01    0.432E-02
RMM:   2    -0.231959710705E+04   -0.23385E-03   -0.22514E-03  6003   0.281E-02    0.542E-02
RMM:   3    -0.231959710498E+04    0.20685E-05   -0.24673E-04  2949   0.113E-02    0.379E-02
RMM:   4    -0.231959709132E+04    0.13659E-04   -0.25663E-05  2924   0.369E-03    0.169E-02
RMM:   5    -0.231959709061E+04    0.70951E-06   -0.85757E-06  2815   0.209E-03
  64 F= -.23409355E+04 E0= -.23409354E+04  d E =-.159195E-03  mag=     5.0000
       N       E                     dE             d eps       ncg     rms          rms(c)
DAV:   1    -0.231959632720E+04    0.76412E-03   -0.83327E-02  4496   0.267E-01    0.876E-02
RMM:   2    -0.231959727086E+04   -0.94366E-03   -0.98405E-03  5989   0.565E-02    0.769E-02
RMM:   3    -0.231959734397E+04   -0.73112E-04   -0.10634E-03  3522   0.233E-02    0.825E-02
RMM:   4    -0.231959728512E+04    0.58852E-04   -0.10433E-04  2968   0.691E-03    0.257E-02
RMM:   5    -0.231959728833E+04   -0.32058E-05   -0.41913E-05  2957   0.468E-03
  65 F= -.23409357E+04 E0= -.23409356E+04  d E =-.286964E-03  mag=     5.0000
       N       E                     dE             d eps       ncg     rms          rms(c)
DAV:   1    -0.231959715172E+04    0.13340E-03   -0.35429E-02  4512   0.176E-01    0.581E-02
RMM:   2    -0.231959754719E+04   -0.39547E-03   -0.41325E-03  6199   0.393E-02    0.508E-02
RMM:   3    -0.231959758029E+04   -0.33102E-04   -0.45967E-04  3110   0.152E-02    0.574E-02
RMM:   4    -0.231959755593E+04    0.24360E-04   -0.46787E-05  2937   0.497E-03    0.195E-02
RMM:   5    -0.231959756005E+04   -0.41136E-05   -0.16187E-05  2915   0.285E-03
  66 F= -.23409359E+04 E0= -.23409358E+04  d E =-.209261E-03  mag=     5.0000
       N       E                     dE             d eps       ncg     rms          rms(c)
DAV:   1    -0.231959706940E+04    0.48653E-03   -0.59067E-02  4496   0.226E-01    0.745E-02
RMM:   2    -0.231959773743E+04   -0.66803E-03   -0.68102E-03  6044   0.480E-02    0.738E-02
RMM:   3    -0.231959778735E+04   -0.49926E-04   -0.77575E-04  3396   0.206E-02    0.748E-02
RMM:   4    -0.231959773161E+04    0.55745E-04   -0.76287E-05  2965   0.610E-03    0.251E-02
RMM:   5    -0.231959773497E+04   -0.33603E-05   -0.28410E-05  2935   0.362E-03
  67 F= -.23409360E+04 E0= -.23409359E+04  d E =-.303624E-03  mag=     5.0000
       N       E                     dE             d eps       ncg     rms          rms(c)
DAV:   1    -0.231959749741E+04    0.23419E-03   -0.50599E-02  4504   0.203E-01    0.680E-02
RMM:   2    -0.231959806973E+04   -0.57232E-03   -0.60510E-03  6170   0.456E-02    0.559E-02
RMM:   3    -0.231959813047E+04   -0.60737E-04   -0.66364E-04  3253   0.182E-02    0.679E-02
RMM:   4    -0.231959808669E+04    0.43775E-04   -0.68978E-05  2966   0.577E-03    0.212E-02
RMM:   5    -0.231959808839E+04   -0.16977E-05   -0.24827E-05  2928   0.372E-03
  68 F= -.23409362E+04 E0= -.23409361E+04  d E =-.249561E-03  mag=     5.0000
       N       E                     dE             d eps       ncg     rms          rms(c)
DAV:   1    -0.231959786609E+04    0.22060E-03   -0.29115E-02  4528   0.154E-01    0.531E-02
RMM:   2    -0.231959820205E+04   -0.33596E-03   -0.35206E-03  6171   0.350E-02    0.487E-02
RMM:   3    -0.231959822537E+04   -0.23318E-04   -0.39322E-04  3030   0.138E-02    0.497E-02
RMM:   4    -0.231959820557E+04    0.19805E-04   -0.40398E-05  2940   0.458E-03    0.178E-02
RMM:   5    -0.231959820826E+04   -0.26989E-05   -0.14765E-05  2913   0.276E-03
  69 F= -.23409363E+04 E0= -.23409362E+04  d E =-.290628E-03  mag=     5.0000
       N       E                     dE             d eps       ncg     rms          rms(c)
DAV:   1    -0.231959805789E+04    0.14767E-03   -0.33727E-02  4504   0.162E-01    0.571E-02
RMM:   2    -0.231959846303E+04   -0.40514E-03   -0.39886E-03  6156   0.360E-02    0.707E-02
RMM:   3    -0.231959846105E+04    0.19847E-05   -0.43175E-04  3041   0.145E-02    0.495E-02
RMM:   4    -0.231959843876E+04    0.22289E-04   -0.46365E-05  2946   0.462E-03    0.233E-02
RMM:   5    -0.231959843809E+04    0.67128E-06   -0.15878E-05  2895   0.266E-03
  70 F= -.23409364E+04 E0= -.23409363E+04  d E =-.180681E-03  mag=     5.0000
       N       E                     dE             d eps       ncg     rms          rms(c)
DAV:   1    -0.231959819943E+04    0.23933E-03   -0.28426E-02  4504   0.149E-01    0.513E-02
RMM:   2    -0.231959851587E+04   -0.31644E-03   -0.33410E-03  6114   0.330E-02    0.472E-02
RMM:   3    -0.231959854046E+04   -0.24593E-04   -0.36763E-04  2998   0.134E-02    0.493E-02
RMM:   4    -0.231959852055E+04    0.19917E-04   -0.37404E-05  2934   0.427E-03    0.150E-02
RMM:   5    -0.231959851837E+04    0.21771E-05   -0.14332E-05  2926   0.272E-03
  71 F= -.23409365E+04 E0= -.23409364E+04  d E =-.215600E-03  mag=     5.0000
       N       E                     dE             d eps       ncg     rms          rms(c)
DAV:   1    -0.231959832580E+04    0.19475E-03   -0.38569E-02  4504   0.176E-01    0.623E-02
RMM:   2    -0.231959880384E+04   -0.47804E-03   -0.48627E-03  6191   0.400E-02    0.629E-02
RMM:   3    -0.231959882097E+04   -0.17136E-04   -0.49985E-04  3136   0.155E-02    0.524E-02
RMM:   4    -0.231959879865E+04    0.22319E-04   -0.53524E-05  2942   0.501E-03    0.215E-02
RMM:   5    -0.231959879895E+04   -0.29792E-06   -0.15954E-05  2901   0.281E-03
  72 F= -.23409367E+04 E0= -.23409366E+04  d E =-.221292E-03  mag=     5.0000
       N       E                     dE             d eps       ncg     rms          rms(c)
DAV:   1    -0.231959814273E+04    0.65592E-03   -0.69226E-02  4496   0.235E-01    0.834E-02
RMM:   2    -0.231959902056E+04   -0.87783E-03   -0.87284E-03  6135   0.527E-02    0.972E-02
RMM:   3    -0.231959903802E+04   -0.17463E-04   -0.90910E-04  3354   0.208E-02    0.730E-02
RMM:   4    -0.231959899067E+04    0.47353E-04   -0.96874E-05  2969   0.647E-03    0.329E-02
RMM:   5    -0.231959898857E+04    0.20917E-05   -0.29385E-05  2899   0.370E-03
  73 F= -.23409368E+04 E0= -.23409367E+04  d E =-.331208E-03  mag=     5.0000
       N       E                     dE             d eps       ncg     rms          rms(c)
DAV:   1    -0.231959899028E+04    0.38394E-06   -0.23212E-02  4592   0.143E-01    0.534E-02
RMM:   2    -0.231959927188E+04   -0.28160E-03   -0.29115E-03  6039   0.330E-02    0.543E-02
RMM:   3    -0.231959928583E+04   -0.13949E-04   -0.32730E-04  3060   0.138E-02    0.482E-02
RMM:   4    -0.231959926757E+04    0.18263E-04   -0.31492E-05  2921   0.433E-03    0.163E-02
RMM:   5    -0.231959927173E+04   -0.41601E-05   -0.14999E-05  2896   0.281E-03
  74 F= -.23409370E+04 E0= -.23409369E+04  d E =-.228405E-03  mag=     5.0000
       N       E                     dE             d eps       ncg     rms          rms(c)
DAV:   1    -0.231959881946E+04    0.44811E-03   -0.53519E-02  4496   0.216E-01    0.796E-02
RMM:   2    -0.231959946350E+04   -0.64403E-03   -0.66745E-03  6040   0.487E-02    0.702E-02
RMM:   3    -0.231959951420E+04   -0.50701E-04   -0.70721E-04  3458   0.202E-02    0.748E-02
RMM:   4    -0.231959946264E+04    0.51558E-04   -0.79425E-05  2957   0.637E-03    0.287E-02
RMM:   5    -0.231959946203E+04    0.60999E-06   -0.27381E-05  2920   0.385E-03
  75 F= -.23409371E+04 E0= -.23409370E+04  d E =-.335719E-03  mag=     5.0000
       N       E                     dE             d eps       ncg     rms          rms(c)
DAV:   1    -0.231959929474E+04    0.16789E-03   -0.29929E-02  4512   0.152E-01    0.577E-02
RMM:   2    -0.231959969223E+04   -0.39748E-03   -0.39597E-03  6139   0.354E-02    0.769E-02
RMM:   3    -0.231959968702E+04    0.52101E-05   -0.43592E-04  3020   0.143E-02    0.450E-02
RMM:   4    -0.231959967368E+04    0.13336E-04   -0.43482E-05  2957   0.446E-03    0.221E-02
RMM:   5    -0.231959967528E+04   -0.16002E-05   -0.15620E-05  2882   0.269E-03
  76 F= -.23409373E+04 E0= -.23409372E+04  d E =-.168106E-03  mag=     5.0000
       N       E                     dE             d eps       ncg     rms          rms(c)
DAV:   1    -0.231959951858E+04    0.15510E-03   -0.17604E-02  4592   0.117E-01    0.427E-02
RMM:   2    -0.231959974100E+04   -0.22242E-03   -0.23164E-03  6021   0.268E-02    0.391E-02
RMM:   3    -0.231959975510E+04   -0.14104E-04   -0.24529E-04  2945   0.110E-02    0.378E-02
RMM:   4    -0.231959974317E+04    0.11926E-04   -0.26931E-05  2929   0.354E-03    0.167E-02
RMM:   5    -0.231959974332E+04   -0.14524E-06   -0.89727E-06  2820   0.199E-03
  77 F= -.23409373E+04 E0= -.23409372E+04  d E =-.201433E-03  mag=     5.0000
       N       E                     dE             d eps       ncg     rms          rms(c)
DAV:   1    -0.231959970729E+04    0.35883E-04   -0.20290E-02  4512   0.128E-01    0.469E-02
RMM:   2    -0.231959997326E+04   -0.26597E-03   -0.27341E-03  6063   0.292E-02    0.540E-02
RMM:   3    -0.231959998339E+04   -0.10125E-04   -0.29724E-04  2957   0.119E-02    0.414E-02
RMM:   4    -0.231959997173E+04    0.11656E-04   -0.29828E-05  2936   0.374E-03    0.169E-02
RMM:   5    -0.231959997344E+04   -0.17136E-05   -0.10248E-05  2812   0.215E-03
  78 F= -.23409375E+04 E0= -.23409374E+04  d E =-.195920E-03  mag=     5.0000
       N       E                     dE             d eps       ncg     rms          rms(c)
DAV:   1    -0.231959966001E+04    0.31172E-03   -0.35492E-02  4504   0.168E-01    0.600E-02
RMM:   2    -0.231960010540E+04   -0.44539E-03   -0.47465E-03  6092   0.384E-02    0.489E-02
RMM:   3    -0.231960014813E+04   -0.42722E-04   -0.50269E-04  3066   0.155E-02    0.572E-02
RMM:   4    -0.231960012176E+04    0.26364E-04   -0.54294E-05  2954   0.495E-03    0.199E-02
RMM:   5    -0.231960012497E+04   -0.32095E-05   -0.18308E-05  2919   0.292E-03
  79 F= -.23409376E+04 E0= -.23409375E+04  d E =-.302222E-03  mag=     5.0000
       N       E                     dE             d eps       ncg     rms          rms(c)
DAV:   1    -0.231960014709E+04   -0.25322E-04   -0.14413E-02  4576   0.114E-01    0.419E-02
RMM:   2    -0.231960033072E+04   -0.18363E-03   -0.18871E-03  5969   0.263E-02    0.460E-02
RMM:   3    -0.231960033856E+04   -0.78411E-05   -0.21223E-04  2956   0.109E-02    0.385E-02
RMM:   4    -0.231960032818E+04    0.10381E-04   -0.22163E-05  2921   0.355E-03    0.159E-02
RMM:   5    -0.231960032893E+04   -0.75079E-06   -0.83626E-06  2832   0.214E-03
  80 F= -.23409378E+04 E0= -.23409377E+04  d E =-.193105E-03  mag=     5.0000
       N       E                     dE             d eps       ncg     rms          rms(c)
DAV:   1    -0.231959994878E+04    0.37940E-03   -0.43276E-02  4496   0.197E-01    0.701E-02
RMM:   2    -0.231960047463E+04   -0.52585E-03   -0.55782E-03  5991   0.436E-02    0.564E-02
RMM:   3    -0.231960052386E+04   -0.49236E-04   -0.60620E-04  3279   0.184E-02    0.669E-02
RMM:   4    -0.231960048468E+04    0.39185E-04   -0.66734E-05  2954   0.579E-03    0.229E-02
RMM:   5    -0.231960048860E+04   -0.39206E-05   -0.25144E-05  2930   0.364E-03
  81 F= -.23409380E+04 E0= -.23409379E+04  d E =-.333972E-03  mag=     5.0000
       N       E                     dE             d eps       ncg     rms          rms(c)
DAV:   1    -0.231960044974E+04    0.34938E-04   -0.17269E-02  4560   0.125E-01    0.447E-02
RMM:   2    -0.231960068434E+04   -0.23461E-03   -0.24079E-03  6102   0.293E-02    0.512E-02
RMM:   3    -0.231960069248E+04   -0.81407E-05   -0.26631E-04  2981   0.117E-02    0.389E-02
RMM:   4    -0.231960068209E+04    0.10395E-04   -0.26785E-05  2932   0.381E-03    0.166E-02
RMM:   5    -0.231960068383E+04   -0.17427E-05   -0.96919E-06  2849   0.232E-03
  82 F= -.23409381E+04 E0= -.23409380E+04  d E =-.152728E-03  mag=     5.0000
       N       E                     dE             d eps       ncg     rms          rms(c)
DAV:   1    -0.231960061412E+04    0.67968E-04   -0.10926E-02  4560   0.990E-02    0.348E-02
RMM:   2    -0.231960075815E+04   -0.14403E-03   -0.15135E-03  5986   0.227E-02    0.315E-02
RMM:   3    -0.231960077045E+04   -0.12298E-04   -0.16948E-04  2929   0.954E-03    0.338E-02
RMM:   4    -0.231960076045E+04    0.99993E-05   -0.18018E-05  2915   0.308E-03
  83 F= -.23409382E+04 E0= -.23409381E+04  d E =-.195317E-03  mag=     5.0000
       N       E                     dE             d eps       ncg     rms          rms(c)
DAV:   1    -0.231960069407E+04    0.76373E-04   -0.22849E-02  4504   0.148E-01    0.545E-02
RMM:   2    -0.231960100809E+04   -0.31402E-03   -0.31305E-03  6029   0.330E-02    0.586E-02
RMM:   3    -0.231960102511E+04   -0.17019E-04   -0.35265E-04  3009   0.138E-02    0.552E-02
RMM:   4    -0.231960099387E+04    0.31239E-04   -0.36513E-05  2933   0.448E-03    0.152E-02
RMM:   5    -0.231960099629E+04   -0.24180E-05   -0.15867E-05  2920   0.298E-03
  84 F= -.23409383E+04 E0= -.23409383E+04  d E =-.173911E-03  mag=     5.0000
       N       E                     dE             d eps       ncg     rms          rms(c)
DAV:   1    -0.231960094426E+04    0.49617E-04   -0.76964E-03  4624   0.859E-02    0.322E-02
RMM:   2    -0.231960104927E+04   -0.10502E-03   -0.10741E-03  5749   0.204E-02    0.345E-02
RMM:   3    -0.231960105409E+04   -0.48172E-05   -0.12394E-04  2925   0.856E-03    0.286E-02
RMM:   4    -0.231960104701E+04    0.70843E-05   -0.11908E-05  2913   0.282E-03
  85 F= -.23409384E+04 E0= -.23409383E+04  d E =-.188416E-03  mag=     5.0000
       N       E                     dE             d eps       ncg     rms          rms(c)
DAV:   1    -0.231960098506E+04    0.69028E-04   -0.13165E-02  4512   0.107E-01    0.368E-02
RMM:   2    -0.231960118437E+04   -0.19931E-03   -0.19903E-03  5973   0.245E-02    0.437E-02
RMM:   3    -0.231960119053E+04   -0.61564E-05   -0.21719E-04  2931   0.102E-02    0.320E-02
RMM:   4    -0.231960118189E+04    0.86309E-05   -0.21120E-05  2930   0.312E-03
  86 F= -.23409385E+04 E0= -.23409384E+04  d E =-.112060E-03  mag=     5.0000
       N       E                     dE             d eps       ncg     rms          rms(c)
DAV:   1    -0.231960078960E+04    0.40093E-03   -0.33256E-02  4496   0.169E-01    0.591E-02
RMM:   2    -0.231960128640E+04   -0.49681E-03   -0.50224E-03  6120   0.384E-02    0.599E-02
RMM:   3    -0.231960131583E+04   -0.29423E-04   -0.52838E-04  3023   0.154E-02    0.578E-02
RMM:   4    -0.231960128491E+04    0.30920E-04   -0.57531E-05  2939   0.481E-03    0.244E-02
RMM:   5    -0.231960128335E+04    0.15522E-05   -0.17899E-05  2899   0.288E-03
  87 F= -.23409385E+04 E0= -.23409384E+04  d E =-.177294E-03  mag=     5.0000
       N       E                     dE             d eps       ncg     rms          rms(c)
DAV:   1    -0.231960123195E+04    0.52957E-04   -0.19285E-02  4504   0.138E-01    0.511E-02
RMM:   2    -0.231960148874E+04   -0.25679E-03   -0.25722E-03  6003   0.307E-02    0.593E-02
RMM:   3    -0.231960149120E+04   -0.24603E-05   -0.27825E-04  2991   0.125E-02    0.421E-02
RMM:   4    -0.231960147636E+04    0.14845E-04   -0.26612E-05  2926   0.401E-03    0.117E-02
RMM:   5    -0.231960147637E+04   -0.18219E-07   -0.10444E-05  2905   0.268E-03
  88 F= -.23409387E+04 E0= -.23409386E+04  d E =-.186071E-03  mag=     5.0000
       N       E                     dE             d eps       ncg     rms          rms(c)
DAV:   1    -0.231960100673E+04    0.46963E-03   -0.46300E-02  4496   0.213E-01    0.759E-02
RMM:   2    -0.231960158941E+04   -0.58268E-03   -0.61219E-03  6045   0.468E-02    0.569E-02
RMM:   3    -0.231960164129E+04   -0.51885E-04   -0.62834E-04  3425   0.191E-02    0.683E-02
RMM:   4    -0.231960159897E+04    0.42324E-04   -0.69637E-05  2945   0.603E-03    0.213E-02
RMM:   5    -0.231960160041E+04   -0.14419E-05   -0.23911E-05  2941   0.376E-03
  89 F= -.23409388E+04 E0= -.23409387E+04  d E =-.299396E-03  mag=     5.0000
       N       E                     dE             d eps       ncg     rms          rms(c)
DAV:   1    -0.231960154624E+04    0.52732E-04   -0.17502E-02  4560   0.127E-01    0.456E-02
RMM:   2    -0.231960177239E+04   -0.22615E-03   -0.23247E-03  6052   0.292E-02    0.451E-02
RMM:   3    -0.231960178426E+04   -0.11875E-04   -0.24219E-04  2965   0.115E-02    0.421E-02
RMM:   4    -0.231960177061E+04    0.13654E-04   -0.27356E-05  2918   0.392E-03    0.161E-02
RMM:   5    -0.231960177178E+04   -0.11733E-05   -0.95754E-06  2863   0.226E-03
  90 F= -.23409390E+04 E0= -.23409389E+04  d E =-.142769E-03  mag=     5.0000
       N       E                     dE             d eps       ncg     rms          rms(c)
DAV:   1    -0.231960163359E+04    0.13701E-03   -0.16065E-02  4520   0.121E-01    0.439E-02
RMM:   2    -0.231960183846E+04   -0.20487E-03   -0.21165E-03  5998   0.271E-02    0.458E-02
RMM:   3    -0.231960184849E+04   -0.10034E-04   -0.22939E-04  2957   0.113E-02    0.392E-02
RMM:   4    -0.231960183628E+04    0.12218E-04   -0.23354E-05  2929   0.364E-03    0.134E-02
RMM:   5    -0.231960183939E+04   -0.31134E-05   -0.10035E-05  2863   0.227E-03
  91 F= -.23409390E+04 E0= -.23409389E+04  d E =-.182955E-03  mag=     5.0000
       N       E                     dE             d eps       ncg     rms          rms(c)
DAV:   1    -0.231960179347E+04    0.42808E-04   -0.16552E-02  4504   0.119E-01    0.432E-02
RMM:   2    -0.231960199840E+04   -0.20493E-03   -0.21771E-03  5996   0.271E-02    0.347E-02
RMM:   3    -0.231960201637E+04   -0.17967E-04   -0.22991E-04  2949   0.113E-02    0.409E-02
RMM:   4    -0.231960200303E+04    0.13335E-04   -0.25067E-05  2913   0.363E-03    0.129E-02
RMM:   5    -0.231960200364E+04   -0.61242E-06   -0.87574E-06  2900   0.221E-03
  92 F= -.23409392E+04 E0= -.23409391E+04  d E =-.135664E-03  mag=     5.0000
       N       E                     dE             d eps       ncg     rms          rms(c)
DAV:   1    -0.231960184912E+04    0.15392E-03   -0.18448E-02  4504   0.126E-01    0.464E-02
RMM:   2    -0.231960208743E+04   -0.23831E-03   -0.24226E-03  6030   0.285E-02    0.466E-02
RMM:   3    -0.231960210023E+04   -0.12805E-04   -0.25818E-04  2961   0.118E-02    0.437E-02
RMM:   4    -0.231960208217E+04    0.18065E-04   -0.28933E-05  2917   0.388E-03    0.183E-02
RMM:   5    -0.231960208168E+04    0.49271E-06   -0.10487E-05  2859   0.229E-03
  93 F= -.23409392E+04 E0= -.23409391E+04  d E =-.183564E-03  mag=     5.0000
       N       E                     dE             d eps       ncg     rms          rms(c)
DAV:   1    -0.231960200603E+04    0.76134E-04   -0.20647E-02  4512   0.135E-01    0.495E-02
RMM:   2    -0.231960226146E+04   -0.25543E-03   -0.26784E-03  6024   0.304E-02    0.474E-02
RMM:   3    -0.231960227870E+04   -0.17237E-04   -0.28885E-04  2983   0.124E-02    0.467E-02
RMM:   4    -0.231960226155E+04    0.17147E-04   -0.30355E-05  2927   0.405E-03    0.132E-02
RMM:   5    -0.231960226229E+04   -0.73071E-06   -0.11710E-05  2916   0.264E-03
  94 F= -.23409393E+04 E0= -.23409393E+04  d E =-.144701E-03  mag=     5.0000
       N       E                     dE             d eps       ncg     rms          rms(c)
DAV:   1    -0.231960222833E+04    0.33224E-04   -0.58484E-03  4656   0.716E-02    0.276E-02
RMM:   2    -0.231960231116E+04   -0.82829E-04   -0.77002E-04  5242   0.170E-02    0.370E-02
RMM:   3    -0.231960230591E+04    0.52454E-05   -0.85361E-05  2916   0.749E-03
  95 F= -.23409394E+04 E0= -.23409393E+04  d E =-.169211E-03  mag=     5.0000
       N       E                     dE             d eps       ncg     rms          rms(c)
DAV:   1    -0.231960218008E+04    0.13108E-03   -0.25531E-02  4496   0.151E-01    0.583E-02
RMM:   2    -0.231960251281E+04   -0.33273E-03   -0.32789E-03  6009   0.340E-02    0.649E-02
RMM:   3    -0.231960250326E+04    0.95489E-05   -0.33463E-04  3013   0.133E-02    0.438E-02
RMM:   4    -0.231960248588E+04    0.17379E-04   -0.41082E-05  2944   0.455E-03    0.211E-02
RMM:   5    -0.231960248545E+04    0.43077E-06   -0.15852E-05  2889   0.294E-03
  96 F= -.23409395E+04 E0= -.23409394E+04  d E =-.153511E-03  mag=     5.0000
       N       E                     dE             d eps       ncg     rms          rms(c)
DAV:   1    -0.231960241114E+04    0.74741E-04   -0.86016E-03  4592   0.876E-02    0.327E-02
RMM:   2    -0.231960252160E+04   -0.11047E-03   -0.11033E-03  5748   0.203E-02    0.350E-02
RMM:   3    -0.231960252428E+04   -0.26740E-05   -0.12018E-04  2922   0.848E-03    0.296E-02
RMM:   4    -0.231960251592E+04    0.83572E-05   -0.13691E-05  2910   0.283E-03
  97 F= -.23409395E+04 E0= -.23409394E+04  d E =-.168700E-03  mag=     5.0000
       N       E                     dE             d eps       ncg     rms          rms(c)
DAV:   1    -0.231960236602E+04    0.15826E-03   -0.27999E-02  4496   0.153E-01    0.546E-02
RMM:   2    -0.231960272530E+04   -0.35929E-03   -0.37352E-03  6053   0.349E-02    0.440E-02
RMM:   3    -0.231960276845E+04   -0.43147E-04   -0.39878E-04  2990   0.141E-02    0.588E-02
RMM:   4    -0.231960273460E+04    0.33853E-04   -0.44006E-05  2949   0.447E-03    0.190E-02
RMM:   5    -0.231960273566E+04   -0.10573E-05   -0.14721E-05  2895   0.260E-03
  98 F= -.23409397E+04 E0= -.23409396E+04  d E =-.151012E-03  mag=     5.0000
       N       E                     dE             d eps       ncg     rms          rms(c)
DAV:   1    -0.231960263689E+04    0.97707E-04   -0.12464E-02  4552   0.102E-01    0.385E-02
RMM:   2    -0.231960281312E+04   -0.17623E-03   -0.17084E-03  5881   0.239E-02    0.512E-02
RMM:   3    -0.231960280700E+04    0.61214E-05   -0.18797E-04  2935   0.997E-03    0.284E-02
RMM:   4    -0.231960280102E+04    0.59784E-05   -0.18770E-05  2941   0.309E-03
  99 F= -.23409397E+04 E0= -.23409396E+04  d E =-.170255E-03  mag=     5.0000
       N       E                     dE             d eps       ncg     rms          rms(c)
DAV:   1    -0.231960268626E+04    0.12074E-03   -0.27335E-02  4496   0.149E-01    0.552E-02
RMM:   2    -0.231960303288E+04   -0.34662E-03   -0.35991E-03  6021   0.339E-02    0.504E-02
RMM:   3    -0.231960306244E+04   -0.29561E-04   -0.39596E-04  2972   0.141E-02    0.532E-02
RMM:   4    -0.231960303972E+04    0.22724E-04   -0.40105E-05  2955   0.438E-03    0.170E-02
RMM:   5    -0.231960304411E+04   -0.43907E-05   -0.17443E-05  2897   0.275E-03
 100 F= -.23409399E+04 E0= -.23409398E+04  d E =-.183668E-03  mag=     5.0000
       N       E                     dE             d eps       ncg     rms          rms(c)
DAV:   1    -0.231960241601E+04    0.62370E-03   -0.61070E-02  4496   0.223E-01    0.815E-02
RMM:   2    -0.231960320167E+04   -0.78566E-03   -0.81972E-03  6044   0.513E-02    0.674E-02
RMM:   3    -0.231960326279E+04   -0.61117E-04   -0.84851E-04  3375   0.202E-02    0.777E-02
RMM:   4    -0.231960321596E+04    0.46824E-04   -0.92091E-05  2938   0.636E-03    0.263E-02
RMM:   5    -0.231960321965E+04   -0.36862E-05   -0.29341E-05  2946   0.368E-03
 101 F= -.23409400E+04 E0= -.23409399E+04  d E =-.270375E-03  mag=     5.0000
       N       E                     dE             d eps       ncg     rms          rms(c)
DAV:   1    -0.231960303976E+04    0.17620E-03   -0.28824E-02  4496   0.145E-01    0.548E-02
RMM:   2    -0.231960344530E+04   -0.40554E-03   -0.40162E-03  6118   0.349E-02    0.667E-02
RMM:   3    -0.231960345022E+04   -0.49266E-05   -0.41990E-04  2992   0.136E-02    0.482E-02
RMM:   4    -0.231960343192E+04    0.18308E-04   -0.43686E-05  2943   0.449E-03    0.234E-02
RMM:   5    -0.231960343120E+04    0.71901E-06   -0.14248E-05  2869   0.245E-03
 102 F= -.23409402E+04 E0= -.23409401E+04  d E =-.171257E-03  mag=     5.0000
       N       E                     dE             d eps       ncg     rms          rms(c)
DAV:   1    -0.231960287717E+04    0.55475E-03   -0.52959E-02  4496   0.196E-01    0.716E-02
RMM:   2    -0.231960356945E+04   -0.69228E-03   -0.72966E-03  6065   0.459E-02    0.606E-02
RMM:   3    -0.231960363006E+04   -0.60607E-04   -0.77796E-04  3130   0.185E-02    0.715E-02
RMM:   4    -0.231960359393E+04    0.36131E-04   -0.79326E-05  2942   0.573E-03    0.226E-02
RMM:   5    -0.231960359891E+04   -0.49860E-05   -0.26411E-05  2943   0.340E-03
 103 F= -.23409403E+04 E0= -.23409402E+04  d E =-.284485E-03  mag=     5.0000
       N       E                     dE             d eps       ncg     rms          rms(c)
DAV:   1    -0.231960344565E+04    0.14828E-03   -0.34591E-02  4496   0.172E-01    0.657E-02
RMM:   2    -0.231960386101E+04   -0.41535E-03   -0.43201E-03  6050   0.394E-02    0.584E-02
RMM:   3    -0.231960389836E+04   -0.37350E-04   -0.48138E-04  3181   0.164E-02    0.661E-02
RMM:   4    -0.231960385933E+04    0.39028E-04   -0.52958E-05  2924   0.542E-03    0.222E-02
RMM:   5    -0.231960386141E+04   -0.20852E-05   -0.20731E-05  2916   0.323E-03
 104 F= -.23409405E+04 E0= -.23409404E+04  d E =-.230390E-03  mag=     5.0000
       N       E                     dE             d eps       ncg     rms          rms(c)
DAV:   1    -0.231960369399E+04    0.16534E-03   -0.18951E-02  4560   0.127E-01    0.489E-02
RMM:   2    -0.231960392202E+04   -0.22803E-03   -0.23935E-03  6000   0.291E-02    0.449E-02
RMM:   3    -0.231960394273E+04   -0.20707E-04   -0.27922E-04  2994   0.126E-02    0.502E-02
RMM:   4    -0.231960392274E+04    0.19992E-04   -0.28771E-05  2914   0.399E-03    0.146E-02
RMM:   5    -0.231960392660E+04   -0.38603E-05   -0.13176E-05  2903   0.253E-03
 105 F= -.23409405E+04 E0= -.23409404E+04  d E =-.271678E-03  mag=     5.0000
       N       E                     dE             d eps       ncg     rms          rms(c)
DAV:   1    -0.231960372503E+04    0.19771E-03   -0.33290E-02  4496   0.161E-01    0.607E-02
RMM:   2    -0.231960415680E+04   -0.43177E-03   -0.44963E-03  6065   0.377E-02    0.516E-02
RMM:   3    -0.231960418828E+04   -0.31483E-04   -0.47008E-04  3070   0.155E-02    0.558E-02
RMM:   4    -0.231960416370E+04    0.24583E-04   -0.51327E-05  2933   0.495E-03    0.199E-02
RMM:   5    -0.231960416446E+04   -0.76616E-06   -0.16666E-05  2930   0.285E-03
 106 F= -.23409407E+04 E0= -.23409406E+04  d E =-.177065E-03  mag=     5.0000
       N       E                     dE             d eps       ncg     rms          rms(c)
DAV:   1    -0.231960398834E+04    0.17536E-03   -0.18491E-02  4536   0.120E-01    0.469E-02
RMM:   2    -0.231960423985E+04   -0.25151E-03   -0.25077E-03  6009   0.282E-02    0.535E-02
RMM:   3    -0.231960424640E+04   -0.65563E-05   -0.28239E-04  2963   0.120E-02    0.414E-02
RMM:   4    -0.231960423315E+04    0.13250E-04   -0.30505E-05  2930   0.381E-03    0.186E-02
RMM:   5    -0.231960423264E+04    0.51381E-06   -0.10536E-05  2850   0.220E-03
 107 F= -.23409407E+04 E0= -.23409406E+04  d E =-.199795E-03  mag=     5.0000
       N       E                     dE             d eps       ncg     rms          rms(c)
DAV:   1    -0.231960416787E+04    0.65278E-04   -0.20492E-02  4504   0.120E-01    0.464E-02
RMM:   2    -0.231960446565E+04   -0.29777E-03   -0.29898E-03  6018   0.291E-02    0.572E-02
RMM:   3    -0.231960447039E+04   -0.47473E-05   -0.32116E-04  2958   0.120E-02    0.383E-02
RMM:   4    -0.231960446015E+04    0.10241E-04   -0.31539E-05  2939   0.368E-03    0.160E-02
RMM:   5    -0.231960446186E+04   -0.17055E-05   -0.10063E-05  2823   0.203E-03
 108 F= -.23409409E+04 E0= -.23409408E+04  d E =-.155864E-03  mag=     5.0000
       N       E                     dE             d eps       ncg     rms          rms(c)
DAV:   1    -0.231960394230E+04    0.51785E-03   -0.49945E-02  4496   0.187E-01    0.703E-02
RMM:   2    -0.231960463800E+04   -0.69570E-03   -0.72275E-03  6062   0.447E-02    0.663E-02
RMM:   3    -0.231960468858E+04   -0.50578E-04   -0.77188E-04  3117   0.183E-02    0.673E-02
RMM:   4    -0.231960465628E+04    0.32303E-04   -0.78647E-05  2957   0.558E-03    0.236E-02
RMM:   5    -0.231960466108E+04   -0.48090E-05   -0.23506E-05  2909   0.316E-03
 109 F= -.23409410E+04 E0= -.23409409E+04  d E =-.240833E-03  mag=     5.0000
       N       E                     dE             d eps       ncg     rms          rms(c)
DAV:   1    -0.231960447777E+04    0.17851E-03   -0.33098E-02  4496   0.157E-01    0.613E-02
RMM:   2    -0.231960493165E+04   -0.45388E-03   -0.45002E-03  6095   0.377E-02    0.740E-02
RMM:   3    -0.231960493512E+04   -0.34736E-05   -0.48889E-04  3052   0.152E-02    0.526E-02
RMM:   4    -0.231960491396E+04    0.21162E-04   -0.51509E-05  2944   0.494E-03    0.255E-02
RMM:   5    -0.231960491259E+04    0.13679E-05   -0.17717E-05  2896   0.281E-03
 110 F= -.23409412E+04 E0= -.23409411E+04  d E =-.202317E-03  mag=     5.0000
       N       E                     dE             d eps       ncg     rms          rms(c)
DAV:   1    -0.231960470014E+04    0.21382E-03   -0.23151E-02  4536   0.131E-01    0.507E-02
RMM:   2    -0.231960500463E+04   -0.30449E-03   -0.31531E-03  6048   0.312E-02    0.521E-02
RMM:   3    -0.231960502305E+04   -0.18422E-04   -0.34955E-04  2994   0.131E-02    0.477E-02
RMM:   4    -0.231960500593E+04    0.17122E-04   -0.34339E-05  2931   0.406E-03    0.154E-02
RMM:   5    -0.231960501089E+04   -0.49650E-05   -0.14883E-05  2880   0.260E-03
 111 F= -.23409412E+04 E0= -.23409411E+04  d E =-.259369E-03  mag=     5.0000
       N       E                     dE             d eps       ncg     rms          rms(c)
DAV:   1    -0.231960492384E+04    0.82085E-04   -0.21261E-02  4504   0.132E-01    0.498E-02
RMM:   2    -0.231960518112E+04   -0.25728E-03   -0.27063E-03  6029   0.314E-02    0.415E-02
RMM:   3    -0.231960520254E+04   -0.21418E-04   -0.28503E-04  3012   0.128E-02    0.479E-02
RMM:   4    -0.231960518421E+04    0.18324E-04   -0.32929E-05  2934   0.427E-03    0.161E-02
RMM:   5    -0.231960518593E+04   -0.17199E-05   -0.11463E-05  2901   0.252E-03
 112 F= -.23409414E+04 E0= -.23409413E+04  d E =-.180665E-03  mag=     5.0000
       N       E                     dE             d eps       ncg     rms          rms(c)
DAV:   1    -0.231960506268E+04    0.12154E-03   -0.13375E-02  4576   0.105E-01    0.416E-02
RMM:   2    -0.231960523804E+04   -0.17536E-03   -0.17202E-03  5949   0.248E-02    0.534E-02
RMM:   3    -0.231960523529E+04    0.27521E-05   -0.19126E-04  2947   0.105E-02    0.347E-02
RMM:   4    -0.231960522597E+04    0.93189E-05   -0.19998E-05  2922   0.340E-03
 113 F= -.23409415E+04 E0= -.23409414E+04  d E =-.225243E-03  mag=     5.0000
       N       E                     dE             d eps       ncg     rms          rms(c)
DAV:   1    -0.231960519996E+04    0.35331E-04   -0.13009E-02  4504   0.107E-01    0.434E-02
RMM:   2    -0.231960535293E+04   -0.15297E-03   -0.15288E-03  5948   0.245E-02    0.437E-02
RMM:   3    -0.231960536205E+04   -0.91194E-05   -0.17412E-04  2957   0.107E-02    0.435E-02
RMM:   4    -0.231960534201E+04    0.20035E-04   -0.21866E-05  2915   0.365E-03    0.135E-02
RMM:   5    -0.231960534316E+04   -0.11511E-05   -0.98879E-06  2904   0.247E-03
 114 F= -.23409416E+04 E0= -.23409415E+04  d E =-.123706E-03  mag=     5.0000
       N       E                     dE             d eps       ncg     rms          rms(c)
DAV:   1    -0.231960530987E+04    0.32143E-04   -0.35252E-03  4744   0.560E-02    0.221E-02
RMM:   2    -0.231960535127E+04   -0.41395E-04   -0.43091E-04  4605   0.135E-02    0.200E-02
RMM:   3    -0.231960535331E+04   -0.20411E-05   -0.50772E-05  2907   0.691E-03
 115 F= -.23409416E+04 E0= -.23409415E+04  d E =-.137281E-03  mag=     5.0000
       N       E                     dE             d eps       ncg     rms          rms(c)
DAV:   1    -0.231960534437E+04    0.68964E-05   -0.10738E-02  4504   0.979E-02    0.383E-02
RMM:   2    -0.231960547195E+04   -0.12758E-03   -0.13149E-03  5917   0.228E-02    0.329E-02
RMM:   3    -0.231960547610E+04   -0.41534E-05   -0.12865E-04  2930   0.893E-03    0.306E-02
RMM:   4    -0.231960546710E+04    0.90021E-05   -0.16906E-05  2915   0.320E-03
 116 F= -.23409417E+04 E0= -.23409416E+04  d E =-.881223E-04  mag=     5.0000
       N       E                     dE             d eps       ncg     rms          rms(c)
DAV:   1    -0.231960545106E+04    0.25044E-04   -0.35742E-03  4624   0.565E-02    0.276E-02
RMM:   2    -0.231960550524E+04   -0.54184E-04   -0.44460E-04  4519   0.132E-02    0.483E-02
RMM:   3    -0.231960548995E+04    0.15290E-04   -0.52522E-05  2914   0.671E-03    0.150E-02
RMM:   4    -0.231960548854E+04    0.14157E-05   -0.74133E-06  2915   0.209E-03
 117 F= -.23409417E+04 E0= -.23409416E+04  d E =-.946167E-04  mag=     5.0000
       N       E                     dE             d eps       ncg     rms          rms(c)
DAV:   1    -0.231960550717E+04   -0.17212E-04   -0.79128E-03  4512   0.820E-02    0.327E-02
RMM:   2    -0.231960560833E+04   -0.10117E-03   -0.92857E-04  5673   0.184E-02    0.450E-02
RMM:   3    -0.231960559957E+04    0.87629E-05   -0.10140E-04  2915   0.797E-03    0.254E-02
RMM:   4    -0.231960559505E+04    0.45218E-05   -0.13376E-05  2915   0.267E-03
 118 F= -.23409418E+04 E0= -.23409417E+04  d E =-.762999E-04  mag=     5.0000
       N       E                     dE             d eps       ncg     rms          rms(c)
DAV:   1    -0.231960556887E+04    0.30697E-04   -0.67752E-03  4544   0.759E-02    0.301E-02
RMM:   2    -0.231960564226E+04   -0.73388E-04   -0.78264E-04  5488   0.171E-02    0.238E-02
RMM:   3    -0.231960565277E+04   -0.10509E-04   -0.93493E-05  2914   0.806E-03    0.325E-02
RMM:   4    -0.231960564180E+04    0.10969E-04   -0.11577E-05  2904   0.262E-03    0.940E-03
RMM:   5    -0.231960564154E+04    0.26217E-06   -0.59086E-06  2836   0.193E-03
 119 F= -.23409418E+04 E0= -.23409417E+04  d E =-.947337E-04  mag=     5.0000
       N       E                     dE             d eps       ncg     rms          rms(c)
DAV:   1    -0.231960565846E+04   -0.16656E-04   -0.80874E-03  4512   0.852E-02    0.321E-02
RMM:   2    -0.231960574727E+04   -0.88810E-04   -0.91299E-04  5672   0.194E-02    0.323E-02
RMM:   3    -0.231960575072E+04   -0.34474E-05   -0.99522E-05  2911   0.855E-03
 120 F= -.23409419E+04 E0= -.23409418E+04  d E =-.977573E-04  mag=     5.0000
       N       E                     dE             d eps       ncg     rms          rms(c)
DAV:   1    -0.231960571787E+04    0.29402E-04   -0.59365E-03  4576   0.730E-02    0.310E-02
RMM:   2    -0.231960578231E+04   -0.64446E-04   -0.69272E-04  5341   0.168E-02    0.248E-02
RMM:   3    -0.231960578593E+04   -0.36189E-05   -0.75796E-05  2915   0.713E-03
 121 F= -.23409419E+04 E0= -.23409418E+04  d E =-.123144E-03  mag=     5.0000
       N       E                     dE             d eps       ncg     rms          rms(c)
DAV:   1    -0.231960576526E+04    0.17049E-04   -0.76856E-03  4504   0.836E-02    0.335E-02
RMM:   2    -0.231960584840E+04   -0.83132E-04   -0.87562E-04  5656   0.191E-02    0.258E-02
RMM:   3    -0.231960585935E+04   -0.10952E-04   -0.10085E-04  2916   0.815E-03    0.344E-02
RMM:   4    -0.231960584766E+04    0.11690E-04   -0.14388E-05  2895   0.291E-03    0.132E-02
RMM:   5    -0.231960584736E+04    0.29907E-06   -0.56457E-06  2756   0.183E-03
 122 F= -.23409420E+04 E0= -.23409419E+04  d E =-.680952E-04  mag=     5.0000
       N       E                     dE             d eps       ncg     rms          rms(c)
DAV:   1    -0.231960583440E+04    0.13261E-04   -0.15997E-03  4728   0.383E-02    0.158E-02
RMM:   2    -0.231960585448E+04   -0.20079E-04   -0.18529E-04  3477   0.903E-03    0.231E-02
RMM:   3    -0.231960585230E+04    0.21706E-05   -0.25499E-05  2878   0.539E-03
 123 F= -.23409420E+04 E0= -.23409419E+04  d E =-.761186E-04  mag=     5.0000
       N       E                     dE             d eps       ncg     rms          rms(c)
DAV:   1    -0.231960584082E+04    0.13651E-04   -0.83109E-03  4504   0.836E-02    0.325E-02
RMM:   2    -0.231960593294E+04   -0.92114E-04   -0.95462E-04  5686   0.191E-02    0.278E-02
RMM:   3    -0.231960593705E+04   -0.41153E-05   -0.98537E-05  2917   0.847E-03
 124 F= -.23409421E+04 E0= -.23409420E+04  d E =-.798054E-04  mag=     5.0000
       N       E                     dE             d eps       ncg     rms          rms(c)
DAV:   1    -0.231960590711E+04    0.25833E-04   -0.32258E-03  4544   0.523E-02    0.249E-02
RMM:   2    -0.231960594447E+04   -0.37361E-04   -0.38889E-04  4114   0.124E-02    0.242E-02
RMM:   3    -0.231960594442E+04    0.44805E-07   -0.47959E-05  2911   0.633E-03
 125 F= -.23409421E+04 E0= -.23409420E+04  d E =-.841024E-04  mag=     5.0000
       N       E                     dE             d eps       ncg     rms          rms(c)
DAV:   1    -0.231960596095E+04   -0.16481E-04   -0.61277E-03  4496   0.673E-02    0.298E-02
RMM:   2    -0.231960605278E+04   -0.91831E-04   -0.77278E-04  5079   0.161E-02    0.467E-02
RMM:   3    -0.231960603520E+04    0.17583E-04   -0.87799E-05  2915   0.734E-03    0.216E-02
RMM:   4    -0.231960603340E+04    0.17935E-05   -0.13914E-05  2912   0.246E-03
 126 F= -.23409421E+04 E0= -.23409420E+04  d E =-.608186E-04  mag=     5.0000
       N       E                     dE             d eps       ncg     rms          rms(c)
DAV:   1    -0.231960599956E+04    0.35638E-04   -0.77572E-03  4496   0.756E-02    0.301E-02
RMM:   2    -0.231960608490E+04   -0.85347E-04   -0.92356E-04  5485   0.175E-02    0.207E-02
RMM:   3    -0.231960609743E+04   -0.12526E-04   -0.10747E-04  2914   0.812E-03    0.320E-02
RMM:   4    -0.231960608786E+04    0.95682E-05   -0.12776E-05  2906   0.259E-03
 127 F= -.23409422E+04 E0= -.23409421E+04  d E =-.835655E-04  mag=     5.0000
       N       E                     dE             d eps       ncg     rms          rms(c)
DAV:   1    -0.231960611604E+04   -0.18612E-04   -0.94920E-03  4496   0.864E-02    0.331E-02
RMM:   2    -0.231960621632E+04   -0.10028E-03   -0.10654E-03  5719   0.198E-02    0.246E-02
RMM:   3    -0.231960622860E+04   -0.12272E-04   -0.12468E-04  2931   0.903E-03    0.352E-02
RMM:   4    -0.231960621883E+04    0.97680E-05   -0.14483E-05  2897   0.284E-03
 128 F= -.23409422E+04 E0= -.23409421E+04  d E =-.911365E-04  mag=     5.0000
       N       E                     dE             d eps       ncg     rms          rms(c)
DAV:   1    -0.231960616492E+04    0.63679E-04   -0.12896E-02  4496   0.100E-01    0.431E-02
RMM:   2    -0.231960634507E+04   -0.18015E-03   -0.15092E-03  5851   0.229E-02    0.704E-02
RMM:   3    -0.231960630723E+04    0.37837E-04   -0.16633E-04  2940   0.970E-03    0.293E-02
RMM:   4    -0.231960630198E+04    0.52499E-05   -0.22669E-05  2924   0.334E-03
 129 F= -.23409423E+04 E0= -.23409422E+04  d E =-.127864E-03  mag=     5.0000
       N       E                     dE             d eps       ncg     rms          rms(c)
DAV:   1    -0.231960628646E+04    0.20773E-04   -0.93816E-03  4512   0.802E-02    0.327E-02
RMM:   2    -0.231960639975E+04   -0.11329E-03   -0.11416E-03  5642   0.192E-02    0.340E-02
RMM:   3    -0.231960640774E+04   -0.79898E-05   -0.13272E-04  2917   0.853E-03    0.346E-02
RMM:   4    -0.231960639708E+04    0.10667E-04   -0.15085E-05  2907   0.279E-03    0.118E-02
RMM:   5    -0.231960639779E+04   -0.71693E-06   -0.63532E-06  2787   0.181E-03
 130 F= -.23409424E+04 E0= -.23409423E+04  d E =-.756826E-04  mag=     5.0000
       N       E                     dE             d eps       ncg     rms          rms(c)
DAV:   1    -0.231960630453E+04    0.92547E-04   -0.12290E-02  4496   0.917E-02    0.345E-02
RMM:   2    -0.231960645185E+04   -0.14732E-03   -0.15181E-03  5860   0.218E-02    0.298E-02
RMM:   3    -0.231960645972E+04   -0.78731E-05   -0.15307E-04  2933   0.903E-03    0.281E-02
RMM:   4    -0.231960645219E+04    0.75350E-05   -0.17330E-05  2928   0.289E-03
 131 F= -.23409424E+04 E0= -.23409423E+04  d E =-.107059E-03  mag=     5.0000
       N       E                     dE             d eps       ncg     rms          rms(c)
DAV:   1    -0.231960645233E+04    0.73896E-05   -0.11496E-02  4496   0.912E-02    0.376E-02
RMM:   2    -0.231960659241E+04   -0.14008E-03   -0.13347E-03  5795   0.210E-02    0.503E-02
RMM:   3    -0.231960658533E+04    0.70781E-05   -0.15305E-04  2922   0.937E-03    0.296E-02
RMM:   4    -0.231960657821E+04    0.71208E-05   -0.16476E-05  2922   0.294E-03
 132 F= -.23409425E+04 E0= -.23409424E+04  d E =-.111872E-03  mag=     5.0000
       N       E                     dE             d eps       ncg     rms          rms(c)
DAV:   1    -0.231960636433E+04    0.22100E-03   -0.26919E-02  4496   0.139E-01    0.569E-02
RMM:   2    -0.231960667113E+04   -0.30680E-03   -0.31026E-03  5994   0.320E-02    0.556E-02
RMM:   3    -0.231960669234E+04   -0.21219E-04   -0.35098E-04  3025   0.136E-02    0.591E-02
RMM:   4    -0.231960665949E+04    0.32856E-04   -0.43602E-05  2921   0.453E-03    0.222E-02
RMM:   5    -0.231960665787E+04    0.16147E-05   -0.16347E-05  2897   0.292E-03
 133 F= -.23409426E+04 E0= -.23409425E+04  d E =-.169949E-03  mag=     5.0000
       N       E                     dE             d eps       ncg     rms          rms(c)
DAV:   1    -0.231960660490E+04    0.54589E-04   -0.16632E-02  4496   0.103E-01    0.405E-02
RMM:   2    -0.231960679697E+04   -0.19207E-03   -0.19685E-03  5907   0.248E-02    0.386E-02
RMM:   3    -0.231960680677E+04   -0.98047E-05   -0.20831E-04  2947   0.103E-02    0.351E-02
RMM:   4    -0.231960679651E+04    0.10260E-04   -0.22520E-05  2931   0.331E-03    0.135E-02
RMM:   5    -0.231960679757E+04   -0.10624E-05   -0.80468E-06  2823   0.198E-03
 134 F= -.23409427E+04 E0= -.23409426E+04  d E =-.111849E-03  mag=     5.0000
       N       E                     dE             d eps       ncg     rms          rms(c)
DAV:   1    -0.231960659117E+04    0.20534E-03   -0.25656E-02  4496   0.127E-01    0.499E-02
RMM:   2    -0.231960688382E+04   -0.29265E-03   -0.30229E-03  6008   0.300E-02    0.450E-02
RMM:   3    -0.231960690139E+04   -0.17569E-04   -0.31197E-04  2980   0.125E-02    0.444E-02
RMM:   4    -0.231960688541E+04    0.15984E-04   -0.35458E-05  2928   0.399E-03    0.182E-02
RMM:   5    -0.231960688668E+04   -0.12720E-05   -0.12515E-05  2868   0.233E-03
 135 F= -.23409427E+04 E0= -.23409426E+04  d E =-.166511E-03  mag=     5.0000
       N       E                     dE             d eps       ncg     rms          rms(c)
DAV:   1    -0.231960684462E+04    0.40783E-04   -0.19709E-02  4496   0.113E-01    0.467E-02
RMM:   2    -0.231960707190E+04   -0.22727E-03   -0.22676E-03  5935   0.271E-02    0.532E-02
RMM:   3    -0.231960707408E+04   -0.21880E-05   -0.24425E-04  2967   0.114E-02    0.403E-02
RMM:   4    -0.231960706121E+04    0.12873E-04   -0.27876E-05  2937   0.370E-03    0.183E-02
RMM:   5    -0.231960706114E+04    0.68496E-07   -0.10164E-05  2827   0.217E-03
 136 F= -.23409429E+04 E0= -.23409428E+04  d E =-.140819E-03  mag=     5.0000
       N       E                     dE             d eps       ncg     rms          rms(c)
DAV:   1    -0.231960684563E+04    0.21558E-03   -0.28308E-02  4496   0.135E-01    0.547E-02
RMM:   2    -0.231960715405E+04   -0.30842E-03   -0.32340E-03  5995   0.318E-02    0.501E-02
RMM:   3    -0.231960717900E+04   -0.24949E-04   -0.36173E-04  3010   0.135E-02    0.548E-02
RMM:   4    -0.231960715582E+04    0.23172E-04   -0.38687E-05  2928   0.430E-03    0.166E-02
RMM:   5    -0.231960716078E+04   -0.49511E-05   -0.17357E-05  2891   0.275E-03
 137 F= -.23409429E+04 E0= -.23409428E+04  d E =-.200121E-03  mag=     5.0000
       N       E                     dE             d eps       ncg     rms          rms(c)
DAV:   1    -0.231960698667E+04    0.16916E-03   -0.29322E-02  4528   0.134E-01    0.535E-02
RMM:   2    -0.231960731971E+04   -0.33304E-03   -0.34422E-03  6046   0.324E-02    0.504E-02
RMM:   3    -0.231960734033E+04   -0.20621E-04   -0.36231E-04  2984   0.131E-02    0.500E-02
RMM:   4    -0.231960732156E+04    0.18770E-04   -0.39918E-05  2943   0.427E-03    0.169E-02
RMM:   5    -0.231960732389E+04   -0.23299E-05   -0.13506E-05  2896   0.245E-03
 138 F= -.23409431E+04 E0= -.23409430E+04  d E =-.146690E-03  mag=     5.0000
       N       E                     dE             d eps       ncg     rms          rms(c)
DAV:   1    -0.231960694897E+04    0.37259E-03   -0.39085E-02  4528   0.154E-01    0.632E-02
RMM:   2    -0.231960741475E+04   -0.46578E-03   -0.45943E-03  6045   0.365E-02    0.768E-02
RMM:   3    -0.231960741828E+04   -0.35354E-05   -0.49655E-04  3079   0.153E-02    0.556E-02
RMM:   4    -0.231960739382E+04    0.24462E-04   -0.54384E-05  2944   0.478E-03    0.237E-02
RMM:   5    -0.231960739401E+04   -0.19251E-06   -0.19155E-05  2890   0.281E-03
 139 F= -.23409431E+04 E0= -.23409430E+04  d E =-.197995E-03  mag=     5.0000
       N       E                     dE             d eps       ncg     rms          rms(c)
DAV:   1    -0.231960726586E+04    0.12797E-03   -0.26539E-02  4496   0.125E-01    0.518E-02
RMM:   2    -0.231960757856E+04   -0.31270E-03   -0.31124E-03  6013   0.306E-02    0.651E-02
RMM:   3    -0.231960757806E+04    0.49634E-06   -0.33745E-04  2977   0.126E-02    0.416E-02
RMM:   4    -0.231960756537E+04    0.12688E-04   -0.33732E-05  2947   0.395E-03    0.165E-02
RMM:   5    -0.231960756982E+04   -0.44489E-05   -0.13863E-05  2893   0.241E-03
 140 F= -.23409433E+04 E0= -.23409432E+04  d E =-.164798E-03  mag=     5.0000
       N       E                     dE             d eps       ncg     rms          rms(c)
DAV:   1    -0.231960715363E+04    0.41175E-03   -0.44449E-02  4496   0.161E-01    0.651E-02
RMM:   2    -0.231960766004E+04   -0.50641E-03   -0.51757E-03  6072   0.387E-02    0.671E-02
RMM:   3    -0.231960768860E+04   -0.28555E-04   -0.55607E-04  3078   0.160E-02    0.628E-02
RMM:   4    -0.231960765762E+04    0.30981E-04   -0.60718E-05  2938   0.502E-03    0.227E-02
RMM:   5    -0.231960766108E+04   -0.34658E-05   -0.21623E-05  2889   0.296E-03
 141 F= -.23409434E+04 E0= -.23409433E+04  d E =-.242022E-03  mag=     5.0000
       N       E                     dE             d eps       ncg     rms          rms(c)
DAV:   1    -0.231960760190E+04    0.55717E-04   -0.24484E-02  4528   0.129E-01    0.529E-02
RMM:   2    -0.231960786116E+04   -0.25927E-03   -0.26228E-03  5988   0.305E-02    0.580E-02
RMM:   3    -0.231960786662E+04   -0.54520E-05   -0.29074E-04  3023   0.127E-02    0.468E-02
RMM:   4    -0.231960784921E+04    0.17411E-04   -0.31642E-05  2926   0.422E-03    0.175E-02
RMM:   5    -0.231960785252E+04   -0.33117E-05   -0.14391E-05  2883   0.264E-03
 142 F= -.23409435E+04 E0= -.23409434E+04  d E =-.169412E-03  mag=     5.0000
       N       E                     dE             d eps       ncg     rms          rms(c)
DAV:   1    -0.231960771736E+04    0.13185E-03   -0.18459E-02  4576   0.111E-01    0.449E-02
RMM:   2    -0.231960790606E+04   -0.18871E-03   -0.19751E-03  5946   0.262E-02    0.411E-02
RMM:   3    -0.231960792101E+04   -0.14944E-04   -0.22145E-04  2969   0.112E-02    0.455E-02
RMM:   4    -0.231960790441E+04    0.16601E-04   -0.25002E-05  2917   0.367E-03    0.142E-02
RMM:   5    -0.231960790743E+04   -0.30225E-05   -0.11297E-05  2866   0.234E-03
 143 F= -.23409436E+04 E0= -.23409435E+04  d E =-.205215E-03  mag=     5.0000
       N       E                     dE             d eps       ncg     rms          rms(c)
DAV:   1    -0.231960777493E+04    0.12948E-03   -0.26362E-02  4496   0.131E-01    0.516E-02
RMM:   2    -0.231960804319E+04   -0.26826E-03   -0.27982E-03  6026   0.310E-02    0.475E-02
RMM:   3    -0.231960805897E+04   -0.15789E-04   -0.29433E-04  2984   0.128E-02    0.488E-02
RMM:   4    -0.231960803998E+04    0.18992E-04   -0.34517E-05  2929   0.426E-03    0.163E-02
RMM:   5    -0.231960804264E+04   -0.26616E-05   -0.13813E-05  2902   0.266E-03
 144 F= -.23409437E+04 E0= -.23409436E+04  d E =-.125260E-03  mag=     5.0000
       N       E                     dE             d eps       ncg     rms          rms(c)
DAV:   1    -0.231960798994E+04    0.50046E-04   -0.63527E-03  4640   0.643E-02    0.279E-02
RMM:   2    -0.231960806741E+04   -0.77474E-04   -0.68631E-04  4937   0.157E-02    0.456E-02
RMM:   3    -0.231960805706E+04    0.10351E-04   -0.84473E-05  2914   0.753E-03    0.191E-02
RMM:   4    -0.231960805482E+04    0.22407E-05   -0.95190E-06  2920   0.233E-03
 145 F= -.23409437E+04 E0= -.23409436E+04  d E =-.132522E-03  mag=     5.0000
       N       E                     dE             d eps       ncg     rms          rms(c)
DAV:   1    -0.231960789570E+04    0.16136E-03   -0.31914E-02  4528   0.149E-01    0.596E-02
RMM:   2    -0.231960819356E+04   -0.29786E-03   -0.31825E-03  6015   0.335E-02    0.441E-02
RMM:   3    -0.231960822006E+04   -0.26496E-04   -0.32155E-04  3055   0.138E-02    0.540E-02
RMM:   4    -0.231960819378E+04    0.26278E-04   -0.43697E-05  2921   0.467E-03    0.228E-02
RMM:   5    -0.231960819530E+04   -0.15189E-05   -0.18528E-05  2904   0.300E-03
 146 F= -.23409439E+04 E0= -.23409438E+04  d E =-.147060E-03  mag=     5.0000
       N       E                     dE             d eps       ncg     rms          rms(c)
DAV:   1    -0.231960817246E+04    0.21317E-04   -0.17237E-03  4728   0.352E-02    0.177E-02
RMM:   2    -0.231960820030E+04   -0.27837E-04   -0.19907E-04  3398   0.895E-03    0.371E-02
RMM:   3    -0.231960818929E+04    0.11006E-04   -0.27008E-05  2891   0.522E-03    0.825E-03
RMM:   4    -0.231960818934E+04   -0.43306E-07   -0.37382E-06  2750   0.158E-03
 147 F= -.23409438E+04 E0= -.23409437E+04  d E =-.142678E-03  mag=     5.0000
       N       E                     dE             d eps       ncg     rms          rms(c)
DAV:   1    -0.231960804016E+04    0.14913E-03   -0.28158E-02  4496   0.143E-01    0.562E-02
RMM:   2    -0.231960830520E+04   -0.26504E-03   -0.27783E-03  5968   0.315E-02    0.484E-02
RMM:   3    -0.231960832282E+04   -0.17624E-04   -0.29789E-04  3070   0.138E-02    0.515E-02
RMM:   4    -0.231960829923E+04    0.23596E-04   -0.37571E-05  2927   0.448E-03    0.200E-02
RMM:   5    -0.231960830066E+04   -0.14358E-05   -0.15895E-05  2901   0.282E-03
 148 F= -.23409440E+04 E0= -.23409439E+04  d E =-.124378E-03  mag=     5.0000
       N       E                     dE             d eps       ncg     rms          rms(c)
DAV:   1    -0.231960827062E+04    0.28612E-04   -0.26264E-03  4720   0.441E-02    0.219E-02
RMM:   2    -0.231960831264E+04   -0.42022E-04   -0.28987E-04  3751   0.108E-02    0.477E-02
RMM:   3    -0.231960829558E+04    0.17056E-04   -0.38752E-05  2913   0.599E-03    0.110E-02
RMM:   4    -0.231960829593E+04   -0.34389E-06   -0.62898E-06  2860   0.188E-03
 149 F= -.23409440E+04 E0= -.23409439E+04  d E =-.123737E-03  mag=     5.0000
       N       E                     dE             d eps       ncg     rms          rms(c)
DAV:   1    -0.231960814430E+04    0.15129E-03   -0.27674E-02  4496   0.137E-01    0.545E-02
RMM:   2    -0.231960841574E+04   -0.27145E-03   -0.28670E-03  5967   0.309E-02    0.466E-02
RMM:   3    -0.231960843425E+04   -0.18504E-04   -0.28824E-04  3024   0.131E-02    0.510E-02
RMM:   4    -0.231960841239E+04    0.21862E-04   -0.37137E-05  2922   0.431E-03    0.191E-02
RMM:   5    -0.231960841553E+04   -0.31469E-05   -0.16770E-05  2886   0.284E-03
 150 F= -.23409441E+04 E0= -.23409440E+04  d E =-.112454E-03  mag=     5.0000
