       N       E                     dE             d eps       ncg     rms          rms(c)
DAV:   1     0.123905245544E+05    0.12391E+05   -0.83830E+05  4640   0.142E+03
DAV:   2    -0.125516287178E+04   -0.13646E+05   -0.13112E+05  4960   0.321E+02
DAV:   3    -0.249385249183E+04   -0.12387E+04   -0.12279E+04  5440   0.104E+02
DAV:   4    -0.252202036025E+04   -0.28168E+02   -0.27988E+02  5680   0.195E+01
DAV:   5    -0.252284891720E+04   -0.82856E+00   -0.82702E+00  5840   0.283E+00    0.170E+02
RMM:   6    -0.149420589923E+04    0.10286E+04   -0.18968E+03  4512   0.375E+01    0.723E+01
RMM:   7    -0.166247478928E+04   -0.16827E+03   -0.27600E+02  5044   0.136E+01    0.542E+01
RMM:   8    -0.170929086588E+04   -0.46816E+02   -0.92465E+01  5371   0.796E+00    0.440E+01
RMM:   9    -0.177509666060E+04   -0.65806E+02   -0.64401E+01  5019   0.745E+00    0.363E+01
RMM:  10    -0.186400575407E+04   -0.88909E+02   -0.53842E+01  5221   0.655E+00    0.322E+01
RMM:  11    -0.196471063898E+04   -0.10070E+03   -0.40279E+01  5097   0.557E+00    0.194E+01
RMM:  12    -0.204880727438E+04   -0.84097E+02   -0.34914E+01  4856   0.448E+00    0.143E+01
RMM:  13    -0.219086897439E+04   -0.14206E+03   -0.10470E+02  4521   0.733E+00    0.111E+01
RMM:  14    -0.223825851690E+04   -0.47390E+02   -0.31717E+01  4667   0.436E+00    0.866E+00
RMM:  15    -0.229857128896E+04   -0.60313E+02   -0.55789E+01  4483   0.517E+00    0.435E+00
RMM:  16    -0.230856389286E+04   -0.99926E+01   -0.10398E+01  4510   0.323E+00    0.301E+00
RMM:  17    -0.231301344287E+04   -0.44496E+01   -0.53395E+00  4848   0.118E+00    0.188E+00
RMM:  18    -0.231429474726E+04   -0.12813E+01   -0.97642E-01  4820   0.764E-01    0.123E+00
RMM:  19    -0.231487511836E+04   -0.58037E+00   -0.45646E-01  4766   0.394E-01    0.615E-01
RMM:  20    -0.231505213258E+04   -0.17701E+00   -0.18171E-01  4665   0.314E-01    0.373E-01
RMM:  21    -0.231509692964E+04   -0.44797E-01   -0.39055E-02  4867   0.137E-01    0.234E-01
RMM:  22    -0.231512316091E+04   -0.26231E-01   -0.14287E-02  4577   0.892E-02    0.130E-01
RMM:  23    -0.231514123765E+04   -0.18077E-01   -0.67289E-03  4556   0.628E-02    0.833E-02
RMM:  24    -0.231515140541E+04   -0.10168E-01   -0.36974E-03  4615   0.485E-02    0.531E-02
RMM:  25    -0.231515691880E+04   -0.55134E-02   -0.19940E-03  4665   0.347E-02    0.318E-02
RMM:  26    -0.231515982788E+04   -0.29091E-02   -0.97891E-04  4219   0.250E-02    0.186E-02
RMM:  27    -0.231516078559E+04   -0.95771E-03   -0.33749E-04  4154   0.153E-02    0.109E-02
RMM:  28    -0.231516125216E+04   -0.46657E-03   -0.13650E-04  3777   0.958E-03    0.696E-03
RMM:  29    -0.231516144902E+04   -0.19687E-03   -0.51282E-05  3574   0.645E-03    0.390E-03
RMM:  30    -0.231516152090E+04   -0.71875E-04   -0.17906E-05  3084   0.412E-03    0.212E-03
RMM:  31    -0.231516155980E+04   -0.38905E-04   -0.10127E-05  2952   0.313E-03    0.148E-03
RMM:  32    -0.231516156725E+04   -0.74453E-05   -0.40542E-06  2686   0.247E-03
   1 F= -.23360240E+04 E0= -.23360240E+04  d E =-.491341E-06  mag=     6.0001
       N       E                     dE             d eps       ncg     rms          rms(c)
DAV:   1    -0.231514517160E+04    0.16388E-01   -0.22207E+00  4320   0.419E-01    0.547E-01
RMM:   2    -0.231513841979E+04    0.67518E-02   -0.30373E-02  4105   0.431E-02    0.235E-01
RMM:   3    -0.231513730390E+04    0.11159E-02   -0.34525E-03  4023   0.251E-02    0.185E-01
RMM:   4    -0.231513744933E+04   -0.14543E-03   -0.16101E-03  3721   0.139E-02    0.228E-01
RMM:   5    -0.231513696919E+04    0.48014E-03   -0.48252E-04  3387   0.880E-03    0.340E-02
RMM:   6    -0.231513697062E+04   -0.14258E-05   -0.89149E-05  2915   0.509E-03
   2 F= -.23360006E+04 E0= -.23360006E+04  d E =-.158528E-06  mag=     6.0000
       N       E                     dE             d eps       ncg     rms          rms(c)
DAV:   1    -0.231517658528E+04   -0.39616E-01   -0.87125E+00  4480   0.882E-01    0.108E+00
RMM:   2    -0.231515002187E+04    0.26563E-01   -0.10889E-01  4373   0.763E-02    0.512E-01
RMM:   3    -0.231514621808E+04    0.38038E-02   -0.14620E-02  5052   0.494E-02    0.521E-01
RMM:   4    -0.231514493999E+04    0.12781E-02   -0.66918E-03  4874   0.279E-02    0.384E-01
RMM:   5    -0.231514360899E+04    0.13310E-02   -0.22420E-03  4278   0.157E-02    0.104E-01
RMM:   6    -0.231514363747E+04   -0.28477E-04   -0.60070E-04  3210   0.106E-02    0.121E-01
RMM:   7    -0.231514350011E+04    0.13736E-03   -0.20405E-04  3041   0.699E-03    0.269E-02
RMM:   8    -0.231514349732E+04    0.27888E-05   -0.31318E-05  2946   0.365E-03
   3 F= -.23360048E+04 E0= -.23360048E+04  d E =-.126425E-05  mag=     6.0000
       N       E                     dE             d eps       ncg     rms          rms(c)
DAV:   1    -0.231516796551E+04   -0.24465E-01   -0.41446E+00  4320   0.531E-01    0.573E-01
RMM:   2    -0.231516224025E+04    0.57253E-02   -0.34728E-02  4014   0.469E-02    0.283E-01
RMM:   3    -0.231516132174E+04    0.91851E-03   -0.47695E-03  4364   0.272E-02    0.312E-01
RMM:   4    -0.231516074839E+04    0.57336E-03   -0.21124E-03  3932   0.160E-02    0.202E-01
RMM:   5    -0.231516038773E+04    0.36066E-03   -0.60919E-04  3376   0.894E-03    0.419E-02
RMM:   6    -0.231516040034E+04   -0.12615E-04   -0.12549E-04  2942   0.598E-03    0.604E-02
RMM:   7    -0.231516036822E+04    0.32121E-04   -0.52787E-05  2819   0.392E-03    0.157E-02
RMM:   8    -0.231516036765E+04    0.57407E-06   -0.87373E-06  2684   0.217E-03
   4 F= -.23360229E+04 E0= -.23360228E+04  d E =-.518647E-06  mag=     6.0000
       N       E                     dE             d eps       ncg     rms          rms(c)
DAV:   1    -0.231516306161E+04   -0.26934E-02   -0.77954E+00  4480   0.697E-01    0.466E-01
RMM:   2    -0.231516132164E+04    0.17400E-02   -0.21225E-02  3795   0.388E-02    0.249E-01
RMM:   3    -0.231516026238E+04    0.10593E-02   -0.41273E-03  4047   0.205E-02    0.734E-02
RMM:   4    -0.231516033486E+04   -0.72481E-04   -0.47644E-04  3230   0.966E-03    0.611E-02
RMM:   5    -0.231516031901E+04    0.15856E-04   -0.96801E-05  2737   0.459E-03    0.422E-02
RMM:   6    -0.231516030348E+04    0.15533E-04   -0.36093E-05  2700   0.277E-03    0.135E-02
RMM:   7    -0.231516030568E+04   -0.22031E-05   -0.10325E-05  2530   0.198E-03
   5 F= -.23360228E+04 E0= -.23360228E+04  d E =-.454247E-06  mag=     6.0000
       N       E                     dE             d eps       ncg     rms          rms(c)
DAV:   1    -0.231514406190E+04    0.16242E-01   -0.40881E+00  4320   0.558E-01    0.473E-01
RMM:   2    -0.231514182954E+04    0.22324E-02   -0.20801E-02  4007   0.409E-02    0.382E-01
RMM:   3    -0.231514177163E+04    0.57917E-04   -0.52573E-03  4770   0.274E-02    0.437E-01
RMM:   4    -0.231513985190E+04    0.19197E-02   -0.24743E-03  4320   0.164E-02    0.858E-02
RMM:   5    -0.231513983189E+04    0.20014E-04   -0.42823E-04  3150   0.837E-03    0.614E-02
RMM:   6    -0.231513981553E+04    0.16358E-04   -0.12773E-04  2968   0.530E-03    0.461E-02
RMM:   7    -0.231513979657E+04    0.18956E-04   -0.30102E-05  2826   0.321E-03    0.147E-02
RMM:   8    -0.231513979539E+04    0.11835E-05   -0.60565E-06  2691   0.201E-03
   6 F= -.23360025E+04 E0= -.23360025E+04  d E =-.257657E-05  mag=     6.0000
       N       E                     dE             d eps       ncg     rms          rms(c)
DAV:   1    -0.231516921673E+04   -0.29420E-01   -0.85930E+00  4320   0.878E-01    0.846E-01
RMM:   2    -0.231516094391E+04    0.82728E-02   -0.69409E-02  4372   0.733E-02    0.750E-01
RMM:   3    -0.231515956534E+04    0.13786E-02   -0.17339E-02  5423   0.467E-02    0.743E-01
RMM:   4    -0.231515381338E+04    0.57520E-02   -0.73807E-03  5056   0.273E-02    0.137E-01
RMM:   5    -0.231515369407E+04    0.11932E-03   -0.99900E-04  3514   0.121E-02    0.815E-02
RMM:   6    -0.231515370859E+04   -0.14522E-04   -0.32830E-04  3141   0.827E-03    0.915E-02
RMM:   7    -0.231515362795E+04    0.80637E-04   -0.95563E-05  2999   0.544E-03    0.234E-02
RMM:   8    -0.231515362386E+04    0.40863E-05   -0.15659E-05  2873   0.299E-03
   7 F= -.23360158E+04 E0= -.23360158E+04  d E =-.754625E-07  mag=     6.0000
       N       E                     dE             d eps       ncg     rms          rms(c)
DAV:   1    -0.231511862741E+04    0.35001E-01   -0.52173E+00  4320   0.655E-01    0.750E-01
RMM:   2    -0.231510574469E+04    0.12883E-01   -0.52324E-02  4256   0.544E-02    0.480E-01
RMM:   3    -0.231510721609E+04   -0.14714E-02   -0.15541E-02  5468   0.415E-02    0.760E-01
RMM:   4    -0.231510111070E+04    0.61054E-02   -0.78704E-03  5168   0.280E-02    0.114E-01
RMM:   5    -0.231510100762E+04    0.10308E-03   -0.82920E-04  3265   0.112E-02    0.834E-02
RMM:   6    -0.231510096791E+04    0.39708E-04   -0.22095E-04  3050   0.683E-03    0.601E-02
RMM:   7    -0.231510093678E+04    0.31134E-04   -0.65625E-05  2976   0.465E-03    0.203E-02
RMM:   8    -0.231510093425E+04    0.25298E-05   -0.10239E-05  2848   0.255E-03
   8 F= -.23359636E+04 E0= -.23359636E+04  d E =-.381290E-06  mag=     6.0000
       N       E                     dE             d eps       ncg     rms          rms(c)
DAV:   1    -0.231518150204E+04   -0.80565E-01   -0.91018E+00  4480   0.815E-01    0.109E+00
RMM:   2    -0.231515313530E+04    0.28367E-01   -0.10144E-01  4251   0.681E-02    0.497E-01
RMM:   3    -0.231514958342E+04    0.35519E-02   -0.16076E-02  5166   0.460E-02    0.482E-01
RMM:   4    -0.231514842960E+04    0.11538E-02   -0.84954E-03  5035   0.304E-02    0.309E-01
RMM:   5    -0.231514744793E+04    0.98167E-03   -0.13077E-03  4173   0.133E-02    0.777E-02
RMM:   6    -0.231514749764E+04   -0.49702E-04   -0.37591E-04  3064   0.887E-03    0.104E-01
RMM:   7    -0.231514739098E+04    0.10665E-03   -0.11320E-04  2956   0.531E-03    0.226E-02
RMM:   8    -0.231514738892E+04    0.20604E-05   -0.22841E-05  2926   0.299E-03
   9 F= -.23360096E+04 E0= -.23360096E+04  d E =-.614290E-06  mag=     6.0000
       N       E                     dE             d eps       ncg     rms          rms(c)
DAV:   1    -0.231516861525E+04   -0.21224E-01   -0.43487E+00  4320   0.555E-01    0.584E-01
RMM:   2    -0.231516089922E+04    0.77160E-02   -0.30806E-02  3960   0.383E-02    0.284E-01
RMM:   3    -0.231515971946E+04    0.11798E-02   -0.51173E-03  4459   0.252E-02    0.260E-01
RMM:   4    -0.231515942435E+04    0.29511E-03   -0.24893E-03  3986   0.172E-02    0.191E-01
RMM:   5    -0.231515908627E+04    0.33808E-03   -0.48113E-04  3330   0.854E-03    0.506E-02
RMM:   6    -0.231515909773E+04   -0.11455E-04   -0.13135E-04  2853   0.578E-03    0.596E-02
RMM:   7    -0.231515906266E+04    0.35069E-04   -0.39235E-05  2729   0.348E-03    0.134E-02
RMM:   8    -0.231515906214E+04    0.51163E-06   -0.83384E-06  2639   0.195E-03
  10 F= -.23360215E+04 E0= -.23360215E+04  d E =-.495515E-06  mag=     6.0000
       N       E                     dE             d eps       ncg     rms          rms(c)
DAV:   1    -0.231516387448E+04   -0.48118E-02   -0.82440E+00  4320   0.664E-01    0.407E-01
RMM:   2    -0.231516259881E+04    0.12757E-02   -0.16325E-02  3754   0.313E-02    0.224E-01
RMM:   3    -0.231516171058E+04    0.88822E-03   -0.35298E-03  3931   0.202E-02    0.119E-01
RMM:   4    -0.231516180856E+04   -0.97980E-04   -0.65826E-04  3257   0.127E-02    0.107E-01
RMM:   5    -0.231516172733E+04    0.81233E-04   -0.13785E-04  3003   0.702E-03    0.259E-02
RMM:   6    -0.231516172983E+04   -0.25064E-05   -0.37570E-05  2646   0.318E-03
  11 F= -.23360242E+04 E0= -.23360242E+04  d E =-.551052E-06  mag=     6.0000
       N       E                     dE             d eps       ncg     rms          rms(c)
DAV:   1    -0.231515278310E+04    0.89442E-02   -0.42102E+00  4320   0.517E-01    0.450E-01
RMM:   2    -0.231514951409E+04    0.32690E-02   -0.17623E-02  3798   0.312E-02    0.232E-01
RMM:   3    -0.231514931896E+04    0.19513E-03   -0.37784E-03  4202   0.219E-02    0.312E-01
RMM:   4    -0.231514851681E+04    0.80215E-03   -0.14904E-03  3644   0.135E-02    0.993E-02
RMM:   5    -0.231514844298E+04    0.73826E-04   -0.25466E-04  3067   0.637E-03    0.403E-02
RMM:   6    -0.231514843844E+04    0.45386E-05   -0.65985E-05  2718   0.427E-03
  12 F= -.23360111E+04 E0= -.23360111E+04  d E =-.718681E-06  mag=     6.0000
       N       E                     dE             d eps       ncg     rms          rms(c)
DAV:   1    -0.231515339592E+04   -0.49529E-02   -0.84657E+00  4320   0.757E-01    0.816E-01
RMM:   2    -0.231513980460E+04    0.13591E-01   -0.53853E-02  4114   0.519E-02    0.396E-01
RMM:   3    -0.231513782640E+04    0.19782E-02   -0.87958E-03  4701   0.302E-02    0.389E-01
RMM:   4    -0.231513715809E+04    0.66831E-03   -0.42456E-03  4578   0.220E-02    0.279E-01
RMM:   5    -0.231513645582E+04    0.70226E-03   -0.92270E-04  3598   0.113E-02    0.745E-02
RMM:   6    -0.231513645406E+04    0.17623E-05   -0.22666E-04  2990   0.776E-03    0.752E-02
RMM:   7    -0.231513639885E+04    0.55213E-04   -0.75689E-05  2900   0.470E-03    0.157E-02
RMM:   8    -0.231513639840E+04    0.44722E-06   -0.16923E-05  2793   0.283E-03
  13 F= -.23359986E+04 E0= -.23359986E+04  d E =-.391498E-06  mag=     6.0000
       N       E                     dE             d eps       ncg     rms          rms(c)
DAV:   1    -0.231516628321E+04   -0.29884E-01   -0.27495E+00  4560   0.413E-01    0.564E-01
RMM:   2    -0.231516051857E+04    0.57646E-02   -0.25066E-02  4116   0.350E-02    0.282E-01
RMM:   3    -0.231515916211E+04    0.13565E-02   -0.24594E-03  3746   0.162E-02    0.162E-01
RMM:   4    -0.231515952785E+04   -0.36574E-03   -0.20397E-03  3723   0.152E-02    0.260E-01
RMM:   5    -0.231515893081E+04    0.59704E-03   -0.59568E-04  3283   0.104E-02    0.367E-02
RMM:   6    -0.231515892943E+04    0.13747E-05   -0.75610E-05  2819   0.441E-03
  14 F= -.23360215E+04 E0= -.23360215E+04  d E =-.556315E-06  mag=     6.0000
       N       E                     dE             d eps       ncg     rms          rms(c)
DAV:   1    -0.231514657233E+04    0.12358E-01   -0.12214E+00  4800   0.243E-01    0.576E-01
RMM:   2    -0.231514147522E+04    0.50971E-02   -0.20641E-02  4227   0.304E-02    0.320E-01
RMM:   3    -0.231514088912E+04    0.58610E-03   -0.26478E-03  3964   0.179E-02    0.299E-01
RMM:   4    -0.231514071036E+04    0.17876E-03   -0.19975E-03  3788   0.159E-02    0.258E-01
RMM:   5    -0.231514021603E+04    0.49433E-03   -0.70054E-04  3182   0.979E-03    0.410E-02
RMM:   6    -0.231514021374E+04    0.22946E-05   -0.91967E-05  2786   0.512E-03
  15 F= -.23360025E+04 E0= -.23360025E+04  d E =-.578775E-06  mag=     6.0000
       N       E                     dE             d eps       ncg     rms          rms(c)
DAV:   1    -0.231516383253E+04   -0.23616E-01   -0.59412E-01  4560   0.162E-01    0.349E-01
RMM:   2    -0.231516233546E+04    0.14971E-02   -0.67730E-03  3671   0.186E-02    0.191E-01
RMM:   3    -0.231516202821E+04    0.30725E-03   -0.62782E-04  3082   0.906E-03    0.120E-01
RMM:   4    -0.231516224901E+04   -0.22080E-03   -0.73583E-04  3187   0.976E-03    0.180E-01
RMM:   5    -0.231516197456E+04    0.27445E-03   -0.27748E-04  3006   0.752E-03    0.258E-02
RMM:   6    -0.231516197319E+04    0.13653E-05   -0.40978E-05  2634   0.298E-03
  16 F= -.23360244E+04 E0= -.23360244E+04  d E =-.440783E-06  mag=     6.0000
       N       E                     dE             d eps       ncg     rms          rms(c)
DAV:   1    -0.231516063972E+04    0.13348E-02   -0.11192E+00  4480   0.236E-01    0.337E-01
RMM:   2    -0.231516068627E+04   -0.46549E-04   -0.29060E-03  3258   0.144E-02    0.201E-01
RMM:   3    -0.231516095140E+04   -0.26513E-03   -0.96947E-04  3360   0.973E-03    0.142E-01
RMM:   4    -0.231516076232E+04    0.18909E-03   -0.20945E-04  2790   0.638E-03    0.202E-02
RMM:   5    -0.231516075327E+04    0.90483E-05   -0.24509E-05  2596   0.236E-03
  17 F= -.23360232E+04 E0= -.23360232E+04  d E =-.502864E-06  mag=     6.0000
       N       E                     dE             d eps       ncg     rms          rms(c)
DAV:   1    -0.231514746494E+04    0.13297E-01   -0.58040E-01  4320   0.169E-01    0.295E-01
RMM:   2    -0.231514692811E+04    0.53683E-03   -0.40215E-03  3335   0.142E-02    0.168E-01
RMM:   3    -0.231514677905E+04    0.14906E-03   -0.38932E-04  2812   0.694E-03    0.792E-02
RMM:   4    -0.231514681714E+04   -0.38089E-04   -0.21839E-04  2965   0.562E-03    0.517E-02
RMM:   5    -0.231514679414E+04    0.22996E-04   -0.43803E-05  2548   0.406E-03    0.175E-02
RMM:   6    -0.231514679019E+04    0.39516E-05   -0.82017E-06  2365   0.155E-03
  18 F= -.23360093E+04 E0= -.23360093E+04  d E =-.538294E-06  mag=     6.0000
       N       E                     dE             d eps       ncg     rms          rms(c)
DAV:   1    -0.231516708830E+04   -0.20294E-01   -0.11713E+00  4720   0.234E-01    0.477E-01
RMM:   2    -0.231516470855E+04    0.23798E-02   -0.12073E-02  3807   0.246E-02    0.269E-01
RMM:   3    -0.231516438329E+04    0.32526E-03   -0.15607E-03  3784   0.142E-02    0.228E-01
RMM:   4    -0.231516439751E+04   -0.14221E-04   -0.14525E-03  3616   0.139E-02    0.210E-01
RMM:   5    -0.231516407168E+04    0.32582E-03   -0.42223E-04  3150   0.894E-03    0.511E-02
RMM:   6    -0.231516405440E+04    0.17279E-04   -0.73573E-05  2766   0.451E-03    0.307E-02
RMM:   7    -0.231516404481E+04    0.95990E-05   -0.19049E-05  2572   0.241E-03
  19 F= -.23360264E+04 E0= -.23360264E+04  d E =-.452660E-06  mag=     6.0000
       N       E                     dE             d eps       ncg     rms          rms(c)
DAV:   1    -0.231518107217E+04   -0.17018E-01   -0.54944E-01  4880   0.200E-01    0.316E-01
RMM:   2    -0.231518038231E+04    0.68986E-03   -0.55329E-03  4197   0.240E-02    0.182E-01
RMM:   3    -0.231518045217E+04   -0.69863E-04   -0.11808E-03  4120   0.138E-02    0.219E-01
RMM:   4    -0.231518011445E+04    0.33772E-03   -0.90412E-04  3320   0.112E-02    0.893E-02
RMM:   5    -0.231518006218E+04    0.52264E-04   -0.12062E-04  2954   0.547E-03    0.363E-02
RMM:   6    -0.231518005534E+04    0.68407E-05   -0.35012E-05  2733   0.351E-03
  20 F= -.23360409E+04 E0= -.23360409E+04  d E =-.353708E-06  mag=     6.0000
       N       E                     dE             d eps       ncg     rms          rms(c)
DAV:   1    -0.231514798612E+04    0.32076E-01   -0.10213E+00  4480   0.279E-01    0.463E-01
RMM:   2    -0.231514548992E+04    0.24962E-02   -0.15194E-02  4975   0.404E-02    0.216E-01
RMM:   3    -0.231514511615E+04    0.37377E-03   -0.18840E-03  4430   0.206E-02    0.213E-01
RMM:   4    -0.231514492368E+04    0.19247E-03   -0.13541E-03  3632   0.131E-02    0.146E-01
RMM:   5    -0.231514472811E+04    0.19557E-03   -0.21586E-04  3212   0.733E-03    0.447E-02
RMM:   6    -0.231514473409E+04   -0.59828E-05   -0.75984E-05  2910   0.521E-03
  21 F= -.23360088E+04 E0= -.23360088E+04  d E =-.722175E-06  mag=     6.0000
       N       E                     dE             d eps       ncg     rms          rms(c)
DAV:   1    -0.231516272247E+04   -0.17994E-01   -0.51142E-01  4480   0.223E-01    0.243E-01
RMM:   2    -0.231516221281E+04    0.50966E-03   -0.45613E-03  4280   0.222E-02    0.126E-01
RMM:   3    -0.231516216594E+04    0.46869E-04   -0.63149E-04  3465   0.116E-02    0.143E-01
RMM:   4    -0.231516205030E+04    0.11564E-03   -0.39116E-04  3060   0.803E-03    0.811E-02
RMM:   5    -0.231516201412E+04    0.36178E-04   -0.10718E-04  2930   0.503E-03    0.419E-02
RMM:   6    -0.231516200008E+04    0.14036E-04   -0.28104E-05  2690   0.331E-03    0.180E-02
RMM:   7    -0.231516199672E+04    0.33633E-05   -0.85737E-06  2549   0.189E-03
  22 F= -.23360244E+04 E0= -.23360244E+04  d E =-.489442E-06  mag=     6.0000
       N       E                     dE             d eps       ncg     rms          rms(c)
DAV:   1    -0.231515973605E+04    0.22640E-02   -0.10056E+00  4480   0.282E-01    0.171E-01
RMM:   2    -0.231515993326E+04   -0.19722E-03   -0.20398E-03  3369   0.137E-02    0.958E-02
RMM:   3    -0.231515991576E+04    0.17499E-04   -0.22896E-04  3008   0.677E-03    0.695E-02
RMM:   4    -0.231515997099E+04   -0.55226E-04   -0.22496E-04  2820   0.573E-03    0.867E-02
RMM:   5    -0.231515990515E+04    0.65838E-04   -0.58993E-05  2686   0.398E-03    0.129E-02
RMM:   6    -0.231515990514E+04    0.14072E-07   -0.96797E-06  2325   0.177E-03
  23 F= -.23360224E+04 E0= -.23360224E+04  d E =-.492492E-06  mag=     6.0000
       N       E                     dE             d eps       ncg     rms          rms(c)
DAV:   1    -0.231516814039E+04   -0.82352E-02   -0.51332E-01  4480   0.203E-01    0.151E-01
RMM:   2    -0.231516855735E+04   -0.41696E-03   -0.20257E-03  3608   0.151E-02    0.224E-01
RMM:   3    -0.231516812128E+04    0.43607E-03   -0.50682E-04  2960   0.911E-03    0.797E-02
RMM:   4    -0.231516808598E+04    0.35298E-04   -0.13912E-04  2928   0.467E-03    0.317E-02
RMM:   5    -0.231516809185E+04   -0.58640E-05   -0.36073E-05  2642   0.336E-03
  24 F= -.23360307E+04 E0= -.23360307E+04  d E =-.554892E-06  mag=     6.0000
       N       E                     dE             d eps       ncg     rms          rms(c)
DAV:   1    -0.231515267780E+04    0.15408E-01   -0.10274E+00  4480   0.285E-01    0.248E-01
RMM:   2    -0.231515428724E+04   -0.16094E-02   -0.61343E-03  4426   0.274E-02    0.451E-01
RMM:   3    -0.231515237808E+04    0.19092E-02   -0.15126E-03  3760   0.153E-02    0.110E-01
RMM:   4    -0.231515230128E+04    0.76808E-04   -0.44109E-04  3201   0.738E-03    0.569E-02
RMM:   5    -0.231515228066E+04    0.20619E-04   -0.68610E-05  2850   0.484E-03    0.170E-02
RMM:   6    -0.231515228158E+04   -0.92693E-06   -0.14923E-05  2679   0.256E-03
  25 F= -.23360146E+04 E0= -.23360146E+04  d E =-.383248E-06  mag=     6.0000
