       N       E                     dE             d eps       ncg     rms          rms(c)
DAV:   1     0.128942542675E+05    0.12894E+05   -0.83433E+05  4488   0.144E+03
DAV:   2    -0.104645426153E+04   -0.13941E+05   -0.13326E+05  5088   0.330E+02
DAV:   3    -0.247276733993E+04   -0.14263E+04   -0.14112E+04  5416   0.112E+02
DAV:   4    -0.251771293108E+04   -0.44946E+02   -0.44712E+02  6704   0.297E+01
DAV:   5    -0.251851881621E+04   -0.80589E+00   -0.80463E+00  6072   0.343E+00    0.170E+02
RMM:   6    -0.148937712998E+04    0.10291E+04   -0.19362E+03  4425   0.384E+01    0.721E+01
RMM:   7    -0.166461562063E+04   -0.17524E+03   -0.29431E+02  4977   0.141E+01    0.501E+01
RMM:   8    -0.171470802739E+04   -0.50092E+02   -0.68076E+01  5141   0.796E+00    0.430E+01
RMM:   9    -0.178306457484E+04   -0.68357E+02   -0.61791E+01  5052   0.718E+00    0.331E+01
RMM:  10    -0.192923532122E+04   -0.14617E+03   -0.62214E+01  5284   0.753E+00    0.229E+01
RMM:  11    -0.201308735263E+04   -0.83852E+02   -0.31143E+01  5156   0.461E+00    0.160E+01
RMM:  12    -0.211952359370E+04   -0.10644E+03   -0.56718E+01  4717   0.568E+00    0.181E+01
RMM:  13    -0.217966753072E+04   -0.60144E+02   -0.30526E+01  4969   0.448E+00    0.103E+01
RMM:  14    -0.228232147286E+04   -0.10265E+03   -0.95238E+01  4400   0.668E+00    0.552E+00
RMM:  15    -0.230523354175E+04   -0.22912E+02   -0.24687E+01  4488   0.418E+00    0.332E+00
RMM:  16    -0.231105866429E+04   -0.58251E+01   -0.86242E+00  5003   0.183E+00    0.222E+00
RMM:  17    -0.231340309036E+04   -0.23444E+01   -0.26610E+00  4876   0.114E+00    0.154E+00
RMM:  18    -0.231398993586E+04   -0.58685E+00   -0.45094E-01  5079   0.551E-01    0.309E+00
RMM:  19    -0.231396229329E+04    0.27643E-01   -0.88891E-02  5479   0.177E-01    0.240E+00
RMM:  20    -0.231403565480E+04   -0.73362E-01   -0.99678E-02  4580   0.178E-01    0.163E+00
RMM:  21    -0.231410603248E+04   -0.70378E-01   -0.10854E-01  4690   0.202E-01    0.181E+00
RMM:  22    -0.231404772687E+04    0.58306E-01   -0.58202E-02  4773   0.171E-01    0.249E+00
RMM:  23    -0.231413737104E+04   -0.89644E-01   -0.31050E-02  4827   0.110E-01    0.175E+00
RMM:  24    -0.231422101474E+04   -0.83644E-01   -0.64392E-02  4747   0.139E-01    0.151E+00
RMM:  25    -0.231430643115E+04   -0.85416E-01   -0.76408E-02  4965   0.136E-01    0.289E+00
RMM:  26    -0.231428633869E+04    0.20092E-01   -0.37121E-03  4688   0.522E-02    0.261E+00
RMM:  27    -0.231427644421E+04    0.98945E-02   -0.30083E-03  4537   0.341E-02    0.244E+00
RMM:  28    -0.231423014299E+04    0.46301E-01   -0.65209E-02  4852   0.124E-01    0.137E+00
RMM:  29    -0.231418855128E+04    0.41592E-01   -0.83814E-02  4929   0.149E-01    0.232E+00
RMM:  30    -0.231405298486E+04    0.13557E+00   -0.18465E-01  5006   0.244E-01    0.298E+00
RMM:  31    -0.231392953241E+04    0.12345E+00   -0.56317E-02  5032   0.136E-01    0.323E+00
RMM:  32    -0.231397267164E+04   -0.43139E-01   -0.97648E-03  4115   0.357E-02    0.318E+00
RMM:  33    -0.231398175312E+04   -0.90815E-02   -0.75166E-04  3839   0.146E-02    0.314E+00
RMM:  34    -0.231397098423E+04    0.10769E-01   -0.47555E-04  3540   0.126E-02    0.314E+00
RMM:  35    -0.231398371496E+04   -0.12731E-01   -0.72248E-04  3440   0.136E-02    0.313E+00
RMM:  36    -0.231398269767E+04    0.10173E-02   -0.63168E-05  2969   0.582E-03    0.314E+00
RMM:  37    -0.231393812474E+04    0.44573E-01   -0.68050E-03  4422   0.428E-02    0.313E+00
RMM:  38    -0.231372219574E+04    0.21593E+00   -0.98247E-02  4858   0.162E-01    0.321E+00
RMM:  39    -0.231373853507E+04   -0.16339E-01   -0.29173E-03  4190   0.449E-02    0.319E+00
RMM:  40    -0.231368808576E+04    0.50449E-01   -0.38918E-03  4337   0.320E-02    0.323E+00
RMM:  41    -0.231368944542E+04   -0.13597E-02   -0.27318E-04  3615   0.109E-02    0.322E+00
RMM:  42    -0.231378926185E+04   -0.99816E-01   -0.18337E-02  4715   0.651E-02    0.308E+00
RMM:  43    -0.231391765732E+04   -0.12840E+00   -0.73153E-02  4782   0.130E-01    0.290E+00
RMM:  44    -0.231396444639E+04   -0.46789E-01   -0.15957E-02  4480   0.777E-02    0.283E+00
RMM:  45    -0.231417463126E+04   -0.21018E+00   -0.20260E-01  4841   0.213E-01    0.228E+00
RMM:  46    -0.231425433328E+04   -0.79702E-01   -0.99531E-02  5125   0.173E-01    0.161E+00
RMM:  47    -0.231430712646E+04   -0.52793E-01   -0.69401E-02  5121   0.123E-01    0.224E+00
RMM:  48    -0.231430861641E+04   -0.14900E-02   -0.65048E-03  4838   0.553E-02    0.229E+00
RMM:  49    -0.231430843797E+04    0.17844E-03   -0.17167E-03  4441   0.156E-02    0.229E+00
RMM:  50    -0.231431598512E+04   -0.75471E-02   -0.64956E-04  4187   0.141E-02    0.245E+00
RMM:  51    -0.231430012684E+04    0.15858E-01   -0.37394E-03  4478   0.242E-02    0.206E+00
RMM:  52    -0.231428574098E+04    0.14386E-01   -0.15513E-02  4713   0.477E-02    0.158E+00
RMM:  53    -0.231426549239E+04    0.20249E-01   -0.33085E-02  4916   0.768E-02    0.132E+00
RMM:  54    -0.231422806509E+04    0.37427E-01   -0.42082E-02  5146   0.967E-02    0.194E+00
RMM:  55    -0.231412220348E+04    0.10586E+00   -0.87944E-02  4989   0.176E-01    0.255E+00
RMM:  56    -0.231417448056E+04   -0.52277E-01   -0.16923E-02  4692   0.696E-02    0.233E+00
RMM:  57    -0.231417401001E+04    0.47056E-03   -0.46773E-04  3540   0.196E-02    0.233E+00
RMM:  58    -0.231417518817E+04   -0.11782E-02   -0.55126E-05  3322   0.511E-03    0.232E+00
RMM:  59    -0.231417688880E+04   -0.17006E-02   -0.21816E-04  3795   0.859E-03    0.229E+00
RMM:  60    -0.231421087807E+04   -0.33989E-01   -0.11323E-02  4731   0.636E-02    0.207E+00
RMM:  61    -0.231424163788E+04   -0.30760E-01   -0.14501E-02  5163   0.642E-02    0.169E+00
RMM:  62    -0.231426061280E+04   -0.18975E-01   -0.12277E-02  5246   0.530E-02    0.150E+00
RMM:  63    -0.231426436755E+04   -0.37548E-02   -0.30615E-03  4553   0.283E-02    0.150E+00
RMM:  64    -0.231426582585E+04   -0.14583E-02   -0.78652E-04  4078   0.144E-02    0.150E+00
RMM:  65    -0.231427711354E+04   -0.11288E-01   -0.34811E-03  4715   0.271E-02    0.142E+00
RMM:  66    -0.231428897439E+04   -0.11861E-01   -0.54340E-03  4819   0.336E-02    0.148E+00
RMM:  67    -0.231430577685E+04   -0.16802E-01   -0.94101E-03  4950   0.432E-02    0.189E+00
RMM:  68    -0.231430716708E+04   -0.13902E-02   -0.95894E-04  3917   0.190E-02    0.194E+00
RMM:  69    -0.231430725201E+04   -0.84931E-04   -0.15121E-04  3093   0.543E-03    0.195E+00
RMM:  70    -0.231430659615E+04    0.65586E-03   -0.10745E-05  2886   0.340E-03    0.193E+00
RMM:  71    -0.231429319686E+04    0.13399E-01   -0.42336E-03  4589   0.270E-02    0.155E+00
RMM:  72    -0.231429460132E+04   -0.14045E-02   -0.50201E-04  3735   0.141E-02    0.155E+00
RMM:  73    -0.231427688773E+04    0.17714E-01   -0.13276E-02  4883   0.487E-02    0.137E+00
RMM:  74    -0.231426720256E+04    0.96852E-02   -0.62207E-03  4693   0.375E-02    0.146E+00
RMM:  75    -0.231424616401E+04    0.21039E-01   -0.13539E-02  5129   0.519E-02    0.178E+00
RMM:  76    -0.231422792797E+04    0.18236E-01   -0.99784E-03  4988   0.489E-02    0.210E+00
RMM:  77    -0.231422372068E+04    0.42073E-02   -0.21558E-03  4677   0.214E-02    0.219E+00
RMM:  78    -0.231422263515E+04    0.10855E-02   -0.17487E-04  3451   0.754E-03    0.221E+00
RMM:  79    -0.231422169298E+04    0.94218E-03   -0.28749E-05  3042   0.407E-03    0.222E+00
RMM:  80    -0.231421874292E+04    0.29501E-02   -0.11151E-04  3511   0.605E-03    0.225E+00
RMM:  81    -0.231419179385E+04    0.26949E-01   -0.11121E-02  4615   0.657E-02    0.246E+00
RMM:  82    -0.231419775599E+04   -0.59621E-02   -0.76024E-04  3583   0.191E-02    0.246E+00
RMM:  83    -0.231422666806E+04   -0.28912E-01   -0.93417E-03  4736   0.595E-02    0.218E+00
RMM:  84    -0.231425350058E+04   -0.26833E-01   -0.17018E-02  5125   0.645E-02    0.170E+00
RMM:  85    -0.231426614759E+04   -0.12647E-01   -0.80721E-03  4990   0.440E-02    0.154E+00
RMM:  86    -0.231428577621E+04   -0.19629E-01   -0.18153E-02  5080   0.602E-02    0.148E+00
RMM:  87    -0.231428777364E+04   -0.19974E-02   -0.21430E-03  4468   0.252E-02    0.152E+00
RMM:  88    -0.231428353336E+04    0.42403E-02   -0.51385E-04  3968   0.110E-02    0.148E+00
RMM:  89    -0.231427945370E+04    0.40797E-02   -0.99900E-04  4182   0.147E-02    0.146E+00
RMM:  90    -0.231426673364E+04    0.12720E-01   -0.79291E-03  4941   0.401E-02    0.153E+00
RMM:  91    -0.231426139769E+04    0.53360E-02   -0.32463E-03  4563   0.278E-02    0.156E+00
RMM:  92    -0.231426155727E+04   -0.15958E-03   -0.39964E-04  3371   0.821E-03    0.156E+00
RMM:  93    -0.231426149419E+04    0.63077E-04   -0.14858E-05  2864   0.397E-03    0.156E+00
RMM:  94    -0.231426257565E+04   -0.10815E-02   -0.27717E-05  2916   0.311E-03    0.154E+00
RMM:  95    -0.231426102197E+04    0.15537E-02   -0.50722E-05  2918   0.400E-03    0.157E+00
RMM:  96    -0.231426159452E+04   -0.57255E-03   -0.28028E-05  2815   0.322E-03    0.157E+00
RMM:  97    -0.231426221604E+04   -0.62151E-03   -0.41166E-05  2987   0.431E-03    0.157E+00
RMM:  98    -0.231426134864E+04    0.86740E-03   -0.84433E-05  3174   0.538E-03    0.158E+00
RMM:  99    -0.231425901095E+04    0.23377E-02   -0.35612E-04  3889   0.966E-03    0.162E+00
RMM: 100    -0.231425903290E+04   -0.21946E-04   -0.32562E-05  2925   0.466E-03    0.162E+00
RMM: 101    -0.231417236891E+04    0.86664E-01   -0.10859E-01  5062   0.189E-01    0.267E+00
RMM: 102    -0.231415947503E+04    0.12894E-01   -0.80075E-03  4600   0.595E-02    0.266E+00
RMM: 103    -0.231416209616E+04   -0.26211E-02   -0.76222E-04  4157   0.151E-02    0.260E+00
RMM: 104    -0.231416751724E+04   -0.54211E-02   -0.48292E-04  3961   0.148E-02    0.253E+00
RMM: 105    -0.231418565562E+04   -0.18138E-01   -0.39018E-03  4368   0.337E-02    0.242E+00
RMM: 106    -0.231419656060E+04   -0.10905E-01   -0.16978E-03  3593   0.235E-02    0.242E+00
RMM: 107    -0.231419634251E+04    0.21809E-03   -0.72333E-05  2991   0.697E-03    0.243E+00
RMM: 108    -0.231418662858E+04    0.97139E-02   -0.11151E-03  3695   0.172E-02    0.247E+00
RMM: 109    -0.231419334500E+04   -0.67164E-02   -0.60123E-04  3631   0.127E-02    0.242E+00
RMM: 110    -0.231420502371E+04   -0.11679E-01   -0.18221E-03  4057   0.235E-02    0.237E+00
RMM: 111    -0.231427964492E+04   -0.74621E-01   -0.72969E-02  4975   0.141E-01    0.140E+00
RMM: 112    -0.231428098261E+04   -0.13377E-02   -0.51107E-03  4543   0.503E-02    0.137E+00
RMM: 113    -0.231429565784E+04   -0.14675E-01   -0.87755E-03  4886   0.394E-02    0.153E+00
RMM: 114    -0.231429608113E+04   -0.42329E-03   -0.60940E-04  3772   0.172E-02    0.155E+00
RMM: 115    -0.231429450891E+04    0.15722E-02   -0.78269E-05  3212   0.480E-03    0.151E+00
RMM: 116    -0.231428251533E+04    0.11994E-01   -0.42300E-03  4610   0.276E-02    0.136E+00
RMM: 117    -0.231429131856E+04   -0.88032E-02   -0.18408E-03  4659   0.203E-02    0.143E+00
RMM: 118    -0.231428847506E+04    0.28435E-02   -0.15806E-04  3394   0.837E-03    0.139E+00
RMM: 119    -0.231427822824E+04    0.10247E-01   -0.34375E-03  4563   0.256E-02    0.137E+00
RMM: 120    -0.231425994190E+04    0.18286E-01   -0.90507E-03  4839   0.441E-02    0.164E+00
RMM: 121    -0.231427323201E+04   -0.13290E-01   -0.28623E-03  4698   0.267E-02    0.143E+00
RMM: 122    -0.231428865018E+04   -0.15418E-01   -0.77279E-03  4802   0.392E-02    0.139E+00
RMM: 123    -0.231432334665E+04   -0.34696E-01   -0.25008E-02  4950   0.683E-02    0.236E+00
RMM: 124    -0.231431958640E+04    0.37602E-02   -0.12583E-03  3805   0.276E-02    0.226E+00
RMM: 125    -0.231433017347E+04   -0.10587E-01   -0.14893E-03  4444   0.151E-02    0.258E+00
RMM: 126    -0.231435234288E+04   -0.22169E-01   -0.43412E-03  4764   0.289E-02    0.304E+00
RMM: 127    -0.231434982048E+04    0.25224E-02   -0.24575E-04  3274   0.130E-02    0.300E+00
RMM: 128    -0.231435065525E+04   -0.83477E-03   -0.50046E-05  2951   0.390E-03    0.302E+00
RMM: 129    -0.231435725395E+04   -0.65987E-02   -0.37119E-04  3822   0.845E-03    0.310E+00
RMM: 130    -0.231435623988E+04    0.10141E-02   -0.22764E-05  2826   0.430E-03    0.308E+00
RMM: 131    -0.231437780340E+04   -0.21564E-01   -0.44216E-03  4700   0.285E-02    0.320E+00
RMM: 132    -0.231437694102E+04    0.86238E-03   -0.23612E-04  3271   0.117E-02    0.319E+00
RMM: 133    -0.231436953981E+04    0.74012E-02   -0.29367E-04  3499   0.779E-03    0.316E+00
RMM: 134    -0.231436641135E+04    0.31285E-02   -0.10090E-04  3032   0.539E-03    0.314E+00
RMM: 135    -0.231435963737E+04    0.67740E-02   -0.37857E-04  3714   0.848E-03    0.307E+00
RMM: 136    -0.231418103520E+04    0.17860E+00   -0.42939E-01  4991   0.301E-01    0.261E+00
RMM: 137    -0.231423619119E+04   -0.55156E-01   -0.34500E-02  4981   0.130E-01    0.198E+00
RMM: 138    -0.231428317538E+04   -0.46984E-01   -0.48099E-02  4923   0.991E-02    0.124E+00
RMM: 139    -0.231430036463E+04   -0.17189E-01   -0.14219E-02  4831   0.602E-02    0.151E+00
RMM: 140    -0.231430586893E+04   -0.55043E-02   -0.33758E-03  4891   0.274E-02    0.168E+00
RMM: 141    -0.231424434849E+04    0.61520E-01   -0.77330E-02  4997   0.121E-01    0.178E+00
RMM: 142    -0.231425753731E+04   -0.13189E-01   -0.31547E-03  4623   0.423E-02    0.151E+00
RMM: 143    -0.231427051024E+04   -0.12973E-01   -0.53217E-03  4775   0.340E-02    0.124E+00
RMM: 144    -0.231427476687E+04   -0.42566E-02   -0.14477E-03  4304   0.210E-02    0.116E+00
RMM: 145    -0.231428186679E+04   -0.70999E-02   -0.23461E-03  4782   0.218E-02    0.109E+00
RMM: 146    -0.231430656772E+04   -0.24701E-01   -0.18170E-02  4941   0.582E-02    0.152E+00
RMM: 147    -0.231430648428E+04    0.83449E-04   -0.12510E-03  3957   0.242E-02    0.153E+00
RMM: 148    -0.231430455801E+04    0.19263E-02   -0.13422E-04  3360   0.590E-03    0.147E+00
RMM: 149    -0.231430295746E+04    0.16006E-02   -0.54830E-05  2965   0.430E-03    0.142E+00
RMM: 150    -0.231429921963E+04    0.37378E-02   -0.39874E-04  3788   0.905E-03    0.132E+00
RMM: 151    -0.231451437233E+04   -0.21515E+00   -0.42600E-01  4883   0.255E-01    0.141E+00
RMM: 152    -0.231450157821E+04    0.12794E-01   -0.17109E-02  4383   0.988E-02    0.157E+00
RMM: 153    -0.231444510474E+04    0.56473E-01   -0.48294E-02  4839   0.925E-02    0.274E+00
RMM: 154    -0.231439317776E+04    0.51927E-01   -0.29376E-02  4834   0.809E-02    0.326E+00
RMM: 155    -0.231435159460E+04    0.41583E-01   -0.20730E-02  5298   0.645E-02    0.306E+00
RMM: 156    -0.231429490521E+04    0.56689E-01   -0.44251E-02  4968   0.932E-02    0.155E+00
RMM: 157    -0.231430642872E+04   -0.11524E-01   -0.29028E-03  4358   0.426E-02    0.186E+00
RMM: 158    -0.231431648217E+04   -0.10053E-01   -0.19771E-03  4463   0.202E-02    0.220E+00
RMM: 159    -0.231433141434E+04   -0.14932E-01   -0.32165E-03  4618   0.257E-02    0.262E+00
RMM: 160    -0.231433069723E+04    0.71711E-03   -0.27285E-04  3323   0.119E-02    0.260E+00
RMM: 161    -0.231429819918E+04    0.32498E-01   -0.14503E-02  4809   0.519E-02    0.163E+00
RMM: 162    -0.231430544096E+04   -0.72418E-02   -0.87935E-04  4034   0.226E-02    0.184E+00
RMM: 163    -0.231430616597E+04   -0.72501E-03   -0.11928E-04  3086   0.623E-03    0.187E+00
RMM: 164    -0.231430403630E+04    0.21297E-02   -0.17181E-04  3396   0.691E-03    0.183E+00
RMM: 165    -0.231430087647E+04    0.31598E-02   -0.41045E-04  3933   0.976E-03    0.177E+00
RMM: 166    -0.231430421198E+04   -0.33355E-02   -0.13858E-04  3356   0.689E-03    0.187E+00
RMM: 167    -0.231430297711E+04    0.12349E-02   -0.36501E-05  2903   0.383E-03    0.185E+00
RMM: 168    -0.231430484841E+04   -0.18713E-02   -0.53780E-05  2896   0.407E-03    0.190E+00
RMM: 169    -0.231430815741E+04   -0.33090E-02   -0.22643E-04  3725   0.749E-03    0.200E+00
RMM: 170    -0.231430780429E+04    0.35312E-03   -0.86837E-05  3102   0.590E-03    0.199E+00
RMM: 171    -0.231432718943E+04   -0.19385E-01   -0.58589E-03  4772   0.351E-02    0.253E+00
RMM: 172    -0.231432507880E+04    0.21106E-02   -0.31681E-04  3398   0.156E-02    0.246E+00
RMM: 173    -0.231432281799E+04    0.22608E-02   -0.57481E-05  3120   0.470E-03    0.240E+00
RMM: 174    -0.231432211964E+04    0.69835E-03   -0.13606E-05  2719   0.277E-03    0.236E+00
RMM: 175    -0.231432025105E+04    0.18686E-02   -0.37286E-05  2858   0.318E-03    0.230E+00
RMM: 176    -0.231430434853E+04    0.15903E-01   -0.32063E-03  4571   0.249E-02    0.172E+00
RMM: 177    -0.231429856390E+04    0.57846E-02   -0.12973E-03  4062   0.192E-02    0.154E+00
RMM: 178    -0.231429466640E+04    0.38975E-02   -0.86341E-04  4129   0.129E-02    0.143E+00
RMM: 179    -0.231428754623E+04    0.71202E-02   -0.16191E-03  4336   0.190E-02    0.130E+00
RMM: 180    -0.231427196136E+04    0.15585E-01   -0.80866E-03  4828   0.409E-02    0.137E+00
RMM: 181    -0.231424425777E+04    0.27704E-01   -0.24781E-02  5021   0.756E-02    0.200E+00
RMM: 182    -0.231425139400E+04   -0.71362E-02   -0.11842E-03  4358   0.269E-02    0.182E+00
RMM: 183    -0.231425211295E+04   -0.71895E-03   -0.12011E-04  3309   0.653E-03    0.179E+00
RMM: 184    -0.231425387183E+04   -0.17589E-02   -0.17431E-04  3469   0.687E-03    0.174E+00
RMM: 185    -0.231426022383E+04   -0.63520E-02   -0.15838E-03  4407   0.193E-02    0.157E+00
RMM: 186    -0.231427249318E+04   -0.12269E-01   -0.53711E-03  4742   0.339E-02    0.130E+00
RMM: 187    -0.231428349841E+04   -0.11005E-01   -0.56977E-03  4851   0.344E-02    0.119E+00
RMM: 188    -0.231428978401E+04   -0.62856E-02   -0.26097E-03  4555   0.235E-02    0.122E+00
RMM: 189    -0.231428914860E+04    0.63541E-03   -0.18100E-04  3183   0.824E-03    0.122E+00
RMM: 190    -0.231429036819E+04   -0.12196E-02   -0.70542E-05  3090   0.442E-03    0.123E+00
RMM: 191    -0.231431670900E+04   -0.26341E-01   -0.15133E-02  4854   0.513E-02    0.197E+00
RMM: 192    -0.231432013629E+04   -0.34273E-02   -0.15706E-03  4175   0.251E-02    0.208E+00
RMM: 193    -0.231430376722E+04    0.16369E-01   -0.34516E-03  4564   0.264E-02    0.157E+00
RMM: 194    -0.231428698536E+04    0.16782E-01   -0.99589E-03  4843   0.447E-02    0.124E+00
RMM: 195    -0.231427205022E+04    0.14935E-01   -0.10943E-02  5055   0.486E-02    0.135E+00
RMM: 196    -0.231426117839E+04    0.10872E-01   -0.62053E-03  4758   0.361E-02    0.156E+00
RMM: 197    -0.231425863912E+04    0.25393E-02   -0.95313E-04  4186   0.163E-02    0.162E+00
RMM: 198    -0.231426086057E+04   -0.22215E-02   -0.10453E-04  3239   0.613E-03    0.157E+00
RMM: 199    -0.231426262211E+04   -0.17615E-02   -0.97465E-05  3240   0.506E-03    0.153E+00
RMM: 200    -0.231427108836E+04   -0.84663E-02   -0.20197E-03  4485   0.203E-02    0.137E+00
RMM: 201    -0.231427870144E+04   -0.76131E-02   -0.21656E-03  4419   0.217E-02    0.127E+00
RMM: 202    -0.231428198618E+04   -0.32847E-02   -0.82002E-04  3983   0.137E-02    0.126E+00
RMM: 203    -0.231428708038E+04   -0.50942E-02   -0.10732E-03  4366   0.151E-02    0.127E+00
RMM: 204    -0.231429059582E+04   -0.35154E-02   -0.61827E-04  3911   0.124E-02    0.131E+00
RMM: 205    -0.231429367870E+04   -0.30829E-02   -0.47945E-04  3981   0.106E-02    0.136E+00
RMM: 206    -0.231429634212E+04   -0.26634E-02   -0.31043E-04  3653   0.924E-03    0.142E+00
RMM: 207    -0.231429914102E+04   -0.27989E-02   -0.29828E-04  3756   0.892E-03    0.149E+00
RMM: 208    -0.231429911422E+04    0.26809E-04   -0.29899E-05  2884   0.486E-03    0.149E+00
RMM: 209    -0.231429906973E+04    0.44481E-04   -0.41775E-06  2630   0.177E-03    0.149E+00
RMM: 210    -0.231429888595E+04    0.18378E-03   -0.11207E-06  2414   0.142E-03    0.149E+00
RMM: 211    -0.231429401901E+04    0.48669E-02   -0.72086E-04  4002   0.115E-02    0.138E+00
RMM: 212    -0.231429370216E+04    0.31685E-03   -0.50036E-05  2756   0.466E-03    0.137E+00
RMM: 213    -0.231429357083E+04    0.13133E-03   -0.39327E-05  2733   0.353E-03    0.133E+00
RMM: 214    -0.231428926313E+04    0.43077E-02   -0.39841E-04  3761   0.849E-03    0.124E+00
RMM: 215    -0.231428720104E+04    0.20621E-02   -0.17705E-04  3323   0.663E-03    0.122E+00
RMM: 216    -0.231427962194E+04    0.75791E-02   -0.20884E-03  4505   0.198E-02    0.122E+00
RMM: 217    -0.231427666028E+04    0.29617E-02   -0.54586E-04  3769   0.117E-02    0.124E+00
RMM: 218    -0.231427354482E+04    0.31155E-02   -0.45085E-04  3959   0.934E-03    0.127E+00
RMM: 219    -0.231427157383E+04    0.19710E-02   -0.17452E-04  3391   0.732E-03    0.130E+00
RMM: 220    -0.231428127786E+04   -0.97040E-02   -0.26162E-03  4421   0.218E-02    0.119E+00
RMM: 221    -0.231430818275E+04   -0.26905E-01   -0.19800E-02  4915   0.612E-02    0.170E+00
RMM: 222    -0.231433414918E+04   -0.25966E-01   -0.13085E-02  4822   0.531E-02    0.250E+00
RMM: 223    -0.231437294031E+04   -0.38791E-01   -0.17059E-02  4987   0.578E-02    0.304E+00
RMM: 224    -0.231435944925E+04    0.13491E-01   -0.12874E-03  4345   0.263E-02    0.294E+00
RMM: 225    -0.231437960237E+04   -0.20153E-01   -0.20218E-03  4421   0.181E-02    0.312E+00
RMM: 226    -0.231437490857E+04    0.46938E-02   -0.26622E-04  3508   0.969E-03    0.313E+00
RMM: 227    -0.231436933313E+04    0.55754E-02   -0.26607E-04  3612   0.767E-03    0.311E+00
RMM: 228    -0.231436363132E+04    0.57018E-02   -0.38378E-04  3863   0.956E-03    0.308E+00
RMM: 229    -0.231436184930E+04    0.17820E-02   -0.88359E-05  3004   0.562E-03    0.306E+00
RMM: 230    -0.231436864399E+04   -0.67947E-02   -0.26169E-04  3296   0.697E-03    0.312E+00
RMM: 231    -0.231434267602E+04    0.25968E-01   -0.46864E-03  4653   0.283E-02    0.279E+00
RMM: 232    -0.231433448969E+04    0.81863E-02   -0.12784E-03  4173   0.183E-02    0.262E+00
RMM: 233    -0.231433131658E+04    0.31731E-02   -0.37767E-04  3658   0.877E-03    0.253E+00
RMM: 234    -0.231433074665E+04    0.56992E-03   -0.29173E-05  2947   0.480E-03    0.251E+00
RMM: 235    -0.231433068428E+04    0.62375E-04   -0.52655E-06  2760   0.213E-03    0.250E+00
RMM: 236    -0.231437830516E+04   -0.47621E-01   -0.16814E-02  4818   0.535E-02    0.315E+00
RMM: 237    -0.231436989775E+04    0.84074E-02   -0.65227E-04  3706   0.208E-02    0.311E+00
RMM: 238    -0.231436350358E+04    0.63942E-02   -0.29809E-04  3699   0.848E-03    0.306E+00
RMM: 239    -0.231436397699E+04   -0.47341E-03   -0.17079E-05  2807   0.325E-03    0.306E+00
RMM: 240    -0.231436525487E+04   -0.12779E-02   -0.19177E-05  2437   0.206E-03    0.306E+00
RMM: 241    -0.231430717209E+04    0.58083E-01   -0.31933E-02  4904   0.742E-02    0.175E+00
RMM: 242    -0.231431380735E+04   -0.66353E-02   -0.13989E-03  3830   0.301E-02    0.196E+00
RMM: 243    -0.231431910543E+04   -0.52981E-02   -0.44848E-04  3932   0.111E-02    0.212E+00
RMM: 244    -0.231431765510E+04    0.14503E-02   -0.43812E-05  2897   0.461E-03    0.208E+00
RMM: 245    -0.231432341054E+04   -0.57554E-02   -0.37935E-04  3633   0.861E-03    0.225E+00
RMM: 246    -0.231432437337E+04   -0.96283E-03   -0.50968E-05  2757   0.441E-03    0.228E+00
RMM: 247    -0.231432088861E+04    0.34848E-02   -0.15384E-04  3359   0.599E-03    0.219E+00
RMM: 248    -0.231431779607E+04    0.30925E-02   -0.28996E-04  3844   0.813E-03    0.210E+00
RMM: 249    -0.231430152542E+04    0.16271E-01   -0.56701E-03  4711   0.334E-02    0.161E+00
RMM: 250    -0.231428759754E+04    0.13928E-01   -0.80297E-03  4905   0.420E-02    0.134E+00
RMM: 251    -0.231428198645E+04    0.56111E-02   -0.24855E-03  4447   0.227E-02    0.129E+00
RMM: 252    -0.231427701437E+04    0.49721E-02   -0.11801E-03  4474   0.157E-02    0.133E+00
RMM: 253    -0.231425841113E+04    0.18603E-01   -0.10196E-02  4903   0.468E-02    0.167E+00
RMM: 254    -0.231424652652E+04    0.11885E-01   -0.70101E-03  4811   0.440E-02    0.197E+00
RMM: 255    -0.231424347878E+04    0.30477E-02   -0.15022E-03  4504   0.191E-02    0.205E+00
RMM: 256    -0.231425093789E+04   -0.74591E-02   -0.13281E-03  4315   0.187E-02    0.187E+00
RMM: 257    -0.231424829084E+04    0.26470E-02   -0.16947E-04  3568   0.820E-03    0.193E+00
RMM: 258    -0.231425483948E+04   -0.65486E-02   -0.12376E-03  4279   0.178E-02    0.177E+00
RMM: 259    -0.231425815276E+04   -0.33133E-02   -0.53751E-04  3909   0.121E-02    0.169E+00
RMM: 260    -0.231426488245E+04   -0.67297E-02   -0.15345E-03  4469   0.187E-02    0.155E+00
RMM: 261    -0.231425830185E+04    0.65806E-02   -0.13867E-03  4403   0.190E-02    0.171E+00
RMM: 262    -0.231425827397E+04    0.27880E-04   -0.55054E-05  2963   0.613E-03    0.171E+00
RMM: 263    -0.231425891175E+04   -0.63779E-03   -0.11005E-05  2555   0.216E-03    0.170E+00
RMM: 264    -0.231425918211E+04   -0.27036E-03   -0.40929E-06  2062   0.144E-03    0.169E+00
RMM: 265    -0.231426048395E+04   -0.13018E-02   -0.64799E-05  3086   0.413E-03    0.166E+00
RMM: 266    -0.231427144361E+04   -0.10960E-01   -0.40324E-03  4648   0.294E-02    0.141E+00
RMM: 267    -0.231427822844E+04   -0.67848E-02   -0.24045E-03  4365   0.240E-02    0.131E+00
RMM: 268    -0.231428181972E+04   -0.35913E-02   -0.10297E-03  4367   0.150E-02    0.128E+00
RMM: 269    -0.231428897158E+04   -0.71519E-02   -0.20744E-03  4523   0.208E-02    0.130E+00
RMM: 270    -0.231429659036E+04   -0.76188E-02   -0.23717E-03  4600   0.229E-02    0.144E+00
RMM: 271    -0.231430184074E+04   -0.52504E-02   -0.13081E-03  4233   0.170E-02    0.158E+00
RMM: 272    -0.231430341761E+04   -0.15769E-02   -0.26198E-04  3442   0.837E-03    0.164E+00
RMM: 273    -0.231430343305E+04   -0.15443E-04   -0.23530E-05  2900   0.394E-03    0.164E+00
RMM: 274    -0.231430242478E+04    0.10083E-02   -0.22689E-05  2801   0.297E-03    0.161E+00
RMM: 275    -0.231430022804E+04    0.21967E-02   -0.14836E-04  3364   0.559E-03    0.155E+00
RMM: 276    -0.231431057601E+04   -0.10348E-01   -0.20028E-03  4400   0.194E-02    0.187E+00
RMM: 277    -0.231430948254E+04    0.10935E-02   -0.82454E-05  2968   0.784E-03    0.185E+00
RMM: 278    -0.231431064435E+04   -0.11618E-02   -0.44231E-05  2856   0.313E-03    0.189E+00
RMM: 279    -0.231430943295E+04    0.12114E-02   -0.17217E-05  2620   0.271E-03    0.185E+00
RMM: 280    -0.231430825566E+04    0.11773E-02   -0.24607E-05  2614   0.246E-03    0.180E+00
RMM: 281    -0.231429641677E+04    0.11839E-01   -0.35877E-03  4634   0.259E-02    0.148E+00
RMM: 282    -0.231430950208E+04   -0.13085E-01   -0.29857E-03  4712   0.247E-02    0.186E+00
RMM: 283    -0.231431148218E+04   -0.19801E-02   -0.25715E-04  3575   0.951E-03    0.194E+00
RMM: 284    -0.231431111093E+04    0.37124E-03   -0.24866E-05  2854   0.353E-03    0.193E+00
RMM: 285    -0.231431086633E+04    0.24461E-03   -0.23077E-06  2452   0.172E-03    0.192E+00
RMM: 286    -0.231433586528E+04   -0.24999E-01   -0.74704E-03  4762   0.364E-02    0.265E+00
RMM: 287    -0.231436608381E+04   -0.30219E-01   -0.92911E-03  4868   0.439E-02    0.311E+00
RMM: 288    -0.231436607563E+04    0.81820E-05   -0.80817E-04  3832   0.178E-02    0.311E+00
RMM: 289    -0.231437173896E+04   -0.56633E-02   -0.53255E-04  4178   0.998E-03    0.314E+00
RMM: 290    -0.231437041463E+04    0.13243E-02   -0.32929E-05  2913   0.528E-03    0.313E+00
RMM: 291    -0.231438745721E+04   -0.17043E-01   -0.20556E-03  4520   0.193E-02    0.317E+00
RMM: 292    -0.231439078042E+04   -0.33232E-02   -0.30494E-04  3443   0.986E-03    0.316E+00
RMM: 293    -0.231439289519E+04   -0.21148E-02   -0.15238E-04  3342   0.569E-03    0.314E+00
RMM: 294    -0.231438341007E+04    0.94851E-02   -0.43066E-04  3737   0.924E-03    0.313E+00
RMM: 295    -0.231438410335E+04   -0.69329E-03   -0.14137E-05  2724   0.327E-03    0.314E+00
RMM: 296    -0.231437859929E+04    0.55041E-02   -0.25915E-04  3726   0.710E-03    0.311E+00
RMM: 297    -0.231437937546E+04   -0.77617E-03   -0.14574E-05  2667   0.331E-03    0.311E+00
RMM: 298    -0.231437500775E+04    0.43677E-02   -0.70674E-05  3029   0.357E-03    0.307E+00
RMM: 299    -0.231437119362E+04    0.38141E-02   -0.91083E-05  3170   0.426E-03    0.305E+00
RMM: 300    -0.231433514849E+04    0.36045E-01   -0.87898E-03  4814   0.388E-02    0.250E+00
RMM: 301    -0.231427018985E+04    0.64959E-01   -0.91183E-02  4970   0.132E-01    0.128E+00
RMM: 302    -0.231415087325E+04    0.11932E+00   -0.16388E-01  5049   0.229E-01    0.253E+00
RMM: 303    -0.231409440457E+04    0.56469E-01   -0.39294E-02  4963   0.116E-01    0.276E+00
RMM: 304    -0.231403243450E+04    0.61970E-01   -0.20596E-02  4779   0.661E-02    0.287E+00
RMM: 305    -0.231402683195E+04    0.56026E-02   -0.15798E-03  3867   0.228E-02    0.288E+00
RMM: 306    -0.231410995293E+04   -0.83121E-01   -0.21598E-02  4515   0.644E-02    0.270E+00
RMM: 307    -0.231414278177E+04   -0.32829E-01   -0.92840E-03  4439   0.528E-02    0.255E+00
RMM: 308    -0.231410727035E+04    0.35511E-01   -0.80732E-03  4456   0.407E-02    0.270E+00
RMM: 309    -0.231413285807E+04   -0.25588E-01   -0.53731E-03  4481   0.323E-02    0.259E+00
RMM: 310    -0.231413815989E+04   -0.53018E-02   -0.49592E-04  3550   0.150E-02    0.256E+00
RMM: 311    -0.231408263482E+04    0.55525E-01   -0.12779E-02  4651   0.571E-02    0.279E+00
RMM: 312    -0.231410835430E+04   -0.25719E-01   -0.24744E-03  4229   0.237E-02    0.271E+00
RMM: 313    -0.231411269004E+04   -0.43357E-02   -0.15768E-04  3380   0.925E-03    0.269E+00
RMM: 314    -0.231412719278E+04   -0.14503E-01   -0.16898E-03  4112   0.207E-02    0.262E+00
RMM: 315    -0.231413702073E+04   -0.98280E-02   -0.85840E-04  3840   0.174E-02    0.256E+00
RMM: 316    -0.231419149231E+04   -0.54472E-01   -0.30042E-02  4734   0.839E-02    0.233E+00
RMM: 317    -0.231415086624E+04    0.40626E-01   -0.18156E-02  4706   0.610E-02    0.254E+00
RMM: 318    -0.231417349325E+04   -0.22627E-01   -0.57550E-03  4540   0.364E-02    0.243E+00
RMM: 319    -0.231416947706E+04    0.40162E-02   -0.39834E-04  3240   0.131E-02    0.245E+00
RMM: 320    -0.231417791594E+04   -0.84389E-02   -0.72711E-04  3572   0.137E-02    0.242E+00
RMM: 321    -0.231418042336E+04   -0.25074E-02   -0.13020E-04  3018   0.735E-03    0.240E+00
RMM: 322    -0.231418392549E+04   -0.35021E-02   -0.21197E-04  3223   0.854E-03    0.239E+00
RMM: 323    -0.231418382844E+04    0.97045E-04   -0.10391E-05  2604   0.323E-03    0.239E+00
RMM: 324    -0.231418812137E+04   -0.42929E-02   -0.29014E-04  3324   0.973E-03    0.237E+00
RMM: 325    -0.231418838928E+04   -0.26791E-03   -0.76268E-05  2912   0.662E-03    0.238E+00
RMM: 326    -0.231420496444E+04   -0.16575E-01   -0.28345E-03  4110   0.274E-02    0.230E+00
RMM: 327    -0.231417876612E+04    0.26198E-01   -0.77343E-03  4564   0.444E-02    0.246E+00
RMM: 328    -0.231416894205E+04    0.98241E-02   -0.13191E-03  4042   0.233E-02    0.251E+00
RMM: 329    -0.231416932917E+04   -0.38712E-03   -0.94031E-05  3052   0.730E-03    0.251E+00
RMM: 330    -0.231416761251E+04    0.17167E-02   -0.63862E-05  2918   0.506E-03    0.251E+00
RMM: 331    -0.231409016194E+04    0.77451E-01   -0.40140E-02  4851   0.997E-02    0.284E+00
RMM: 332    -0.231409903126E+04   -0.88693E-02   -0.12098E-03  3851   0.248E-02    0.281E+00
RMM: 333    -0.231409811866E+04    0.91260E-03   -0.79222E-05  3252   0.506E-03    0.282E+00
RMM: 334    -0.231409790334E+04    0.21532E-03   -0.63132E-06  2615   0.253E-03    0.282E+00
RMM: 335    -0.231410065082E+04   -0.27475E-02   -0.41047E-05  2755   0.403E-03    0.280E+00
RMM: 336    -0.231405868133E+04    0.41969E-01   -0.12879E-02  4376   0.400E-02    0.288E+00
RMM: 337    -0.231407738703E+04   -0.18706E-01   -0.15876E-03  3774   0.174E-02    0.284E+00
RMM: 338    -0.231412149756E+04   -0.44111E-01   -0.97406E-03  4437   0.432E-02    0.273E+00
RMM: 339    -0.231412181858E+04   -0.32102E-03   -0.32567E-04  3148   0.123E-02    0.273E+00
RMM: 340    -0.231411296014E+04    0.88584E-02   -0.37671E-04  3159   0.926E-03    0.276E+00
RMM: 341    -0.231413545111E+04   -0.22491E-01   -0.55219E-03  4804   0.358E-02    0.256E+00
RMM: 342    -0.231411390825E+04    0.21543E-01   -0.35713E-03  4282   0.305E-02    0.267E+00
RMM: 343    -0.231412039735E+04   -0.64891E-02   -0.24644E-04  3580   0.974E-03    0.264E+00
RMM: 344    -0.231413200304E+04   -0.11606E-01   -0.95185E-04  3756   0.151E-02    0.259E+00
RMM: 345    -0.231413991015E+04   -0.79071E-02   -0.56738E-04  3474   0.135E-02    0.256E+00
RMM: 346    -0.231431364998E+04   -0.17374E+00   -0.36303E-01  4941   0.296E-01    0.155E+00
RMM: 347    -0.231437860078E+04   -0.64951E-01   -0.10117E-01  4882   0.170E-01    0.273E+00
RMM: 348    -0.231432219883E+04    0.56402E-01   -0.17936E-02  4831   0.673E-02    0.181E+00
RMM: 349    -0.231427905276E+04    0.43146E-01   -0.59277E-02  4921   0.112E-01    0.114E+00
RMM: 350    -0.231425065688E+04    0.28396E-01   -0.50202E-02  5054   0.110E-01    0.181E+00
RMM: 351    -0.231422689944E+04    0.23757E-01   -0.17009E-02  5161   0.728E-02    0.217E+00
RMM: 352    -0.231421757966E+04    0.93198E-02   -0.33377E-03  4693   0.358E-02    0.223E+00
RMM: 353    -0.231421685112E+04    0.72854E-03   -0.24286E-04  3438   0.111E-02    0.223E+00
RMM: 354    -0.231421661607E+04    0.23505E-03   -0.31659E-05  3014   0.433E-03    0.223E+00
RMM: 355    -0.231421342425E+04    0.31918E-02   -0.22476E-04  3246   0.902E-03    0.224E+00
RMM: 356    -0.231418794512E+04    0.25479E-01   -0.74944E-03  4484   0.488E-02    0.237E+00
RMM: 357    -0.231418006748E+04    0.78776E-02   -0.12429E-03  3705   0.237E-02    0.239E+00
RMM: 358    -0.231417447340E+04    0.55941E-02   -0.80960E-04  3389   0.155E-02    0.240E+00
RMM: 359    -0.231419048563E+04   -0.16012E-01   -0.18601E-03  4268   0.230E-02    0.228E+00
RMM: 360    -0.231420064419E+04   -0.10159E-01   -0.94852E-04  4036   0.195E-02    0.220E+00
RMM: 361    -0.231420315075E+04   -0.25066E-02   -0.37244E-04  3283   0.126E-02    0.223E+00
RMM: 362    -0.231419475784E+04    0.83929E-02   -0.66890E-04  3826   0.142E-02    0.228E+00
RMM: 363    -0.231419132537E+04    0.34325E-02   -0.14654E-04  3313   0.810E-03    0.232E+00
RMM: 364    -0.231418168538E+04    0.96400E-02   -0.11817E-03  3928   0.192E-02    0.236E+00
RMM: 365    -0.231421211573E+04   -0.30430E-01   -0.93601E-03  4339   0.490E-02    0.225E+00
RMM: 366    -0.231420211376E+04    0.10002E-01   -0.12757E-03  4857   0.221E-02    0.238E+00
RMM: 367    -0.231420396668E+04   -0.18529E-02   -0.11013E-04  3114   0.898E-03    0.238E+00
RMM: 368    -0.231419997500E+04    0.39917E-02   -0.17615E-04  3244   0.806E-03    0.240E+00
RMM: 369    -0.231419022828E+04    0.97467E-02   -0.11702E-03  3744   0.192E-02    0.243E+00
RMM: 370    -0.231418592068E+04    0.43076E-02   -0.57787E-04  3251   0.155E-02    0.241E+00
RMM: 371    -0.231415324919E+04    0.32671E-01   -0.10795E-02  4336   0.501E-02    0.249E+00
RMM: 372    -0.231415793401E+04   -0.46848E-02   -0.51747E-04  3283   0.148E-02    0.249E+00
RMM: 373    -0.231416176344E+04   -0.38294E-02   -0.13583E-04  2997   0.720E-03    0.248E+00
RMM: 374    -0.231415907217E+04    0.26913E-02   -0.93299E-05  2733   0.550E-03    0.248E+00
RMM: 375    -0.231415876530E+04    0.30688E-03   -0.83289E-06  2399   0.249E-03    0.248E+00
RMM: 376    -0.231417333489E+04   -0.14570E-01   -0.32584E-03  4051   0.255E-02    0.252E+00
RMM: 377    -0.231421584024E+04   -0.42505E-01   -0.18389E-02  4761   0.760E-02    0.223E+00
RMM: 378    -0.231421721913E+04   -0.13789E-02   -0.12043E-03  4007   0.282E-02    0.221E+00
RMM: 379    -0.231421464271E+04    0.25764E-02   -0.13816E-04  3170   0.608E-03    0.221E+00
RMM: 380    -0.231421897055E+04   -0.43278E-02   -0.45679E-04  3305   0.117E-02    0.220E+00
RMM: 381    -0.231425472389E+04   -0.35753E-01   -0.13490E-02  4691   0.703E-02    0.201E+00
RMM: 382    -0.231425287264E+04    0.18512E-02   -0.64127E-04  3491   0.232E-02    0.200E+00
RMM: 383    -0.231425284316E+04    0.29478E-04   -0.14620E-04  3193   0.707E-03    0.199E+00
RMM: 384    -0.231426229508E+04   -0.94519E-02   -0.30442E-03  4636   0.279E-02    0.175E+00
RMM: 385    -0.231427403036E+04   -0.11735E-01   -0.60535E-03  4881   0.389E-02    0.148E+00
RMM: 386    -0.231428583798E+04   -0.11808E-01   -0.89223E-03  5092   0.448E-02    0.135E+00
RMM: 387    -0.231429591754E+04   -0.10080E-01   -0.55858E-03  4709   0.343E-02    0.148E+00
RMM: 388    -0.231428481375E+04    0.11104E-01   -0.29371E-03  4546   0.255E-02    0.134E+00
RMM: 389    -0.231427366854E+04    0.11145E-01   -0.56509E-03  4744   0.340E-02    0.145E+00
RMM: 390    -0.231425130794E+04    0.22361E-01   -0.23251E-02  4983   0.734E-02    0.203E+00
RMM: 391    -0.231428536459E+04   -0.34057E-01   -0.32867E-02  4993   0.874E-02    0.141E+00
RMM: 392    -0.231427037631E+04    0.14988E-01   -0.55525E-03  4895   0.449E-02    0.157E+00
RMM: 393    -0.231427182417E+04   -0.14479E-02   -0.16438E-04  3205   0.918E-03    0.153E+00
RMM: 394    -0.231427060490E+04    0.12193E-02   -0.40614E-05  3018   0.413E-03    0.154E+00
RMM: 395    -0.231427028216E+04    0.32274E-03   -0.78459E-06  2649   0.245E-03    0.155E+00
RMM: 396    -0.231426116531E+04    0.91169E-02   -0.25383E-03  4562   0.245E-02    0.174E+00
RMM: 397    -0.231426300628E+04   -0.18410E-02   -0.30263E-04  3792   0.111E-02    0.166E+00
RMM: 398    -0.231426922274E+04   -0.62165E-02   -0.23510E-03  4566   0.240E-02    0.147E+00
RMM: 399    -0.231427741193E+04   -0.81892E-02   -0.33740E-03  4720   0.286E-02    0.131E+00
RMM: 400    -0.231428279385E+04   -0.53819E-02   -0.19395E-03  4452   0.204E-02    0.127E+00
RMM: 401    -0.231428433581E+04   -0.15420E-02   -0.34969E-04  3647   0.963E-03
   1 F= -.23351605E+04 E0= -.23351555E+04  d E =-.233516E+04  mag=     8.4223
       N       E                     dE             d eps       ncg     rms          rms(c)
DAV:   1    -0.231418248483E+04    0.10031E+00   -0.77548E+00  4536   0.240E+00    0.149E+00
RMM:   2    -0.231437964586E+04   -0.19716E+00   -0.18795E+00  5937   0.603E-01    0.161E+00
RMM:   3    -0.231441568933E+04   -0.36043E-01   -0.25372E-01  5041   0.333E-01    0.276E+00
RMM:   4    -0.231440226428E+04    0.13425E-01   -0.64300E-02  4980   0.109E-01    0.219E+00
RMM:   5    -0.231437159805E+04    0.30666E-01   -0.35136E-02  5206   0.903E-02    0.120E+00
RMM:   6    -0.231435919166E+04    0.12406E-01   -0.13056E-02  5292   0.546E-02    0.145E+00
RMM:   7    -0.231434619966E+04    0.12992E-01   -0.12595E-02  4835   0.562E-02    0.189E+00
RMM:   8    -0.231435567595E+04   -0.94763E-02   -0.25157E-03  4406   0.302E-02    0.166E+00
RMM:   9    -0.231437308236E+04   -0.17406E-01   -0.24802E-02  4842   0.740E-02    0.977E-01
RMM:  10    -0.231439339146E+04   -0.20309E-01   -0.34746E-02  4872   0.854E-02    0.132E+00
RMM:  11    -0.231443048828E+04   -0.37097E-01   -0.35842E-02  4999   0.880E-02    0.260E+00
RMM:  12    -0.231439579920E+04    0.34689E-01   -0.16632E-02  4823   0.621E-02    0.146E+00
RMM:  13    -0.231438356373E+04    0.12235E-01   -0.12413E-02  4776   0.510E-02    0.106E+00
RMM:  14    -0.231436458961E+04    0.18974E-01   -0.28513E-02  5046   0.754E-02    0.121E+00
RMM:  15    -0.231435449887E+04    0.10091E-01   -0.12350E-02  4794   0.564E-02    0.158E+00
RMM:  16    -0.231434969905E+04    0.47998E-02   -0.55832E-03  4839   0.350E-02    0.181E+00
RMM:  17    -0.231435233141E+04   -0.26324E-02   -0.50519E-04  3985   0.156E-02    0.170E+00
RMM:  18    -0.231436560017E+04   -0.13269E-01   -0.12182E-02  4789   0.536E-02    0.119E+00
RMM:  19    -0.231437706830E+04   -0.11468E-01   -0.10335E-02  4796   0.490E-02    0.986E-01
RMM:  20    -0.231439677439E+04   -0.19706E-01   -0.20581E-02  5086   0.629E-02    0.152E+00
RMM:  21    -0.231440886912E+04   -0.12095E-01   -0.64884E-03  4756   0.391E-02    0.200E+00
RMM:  22    -0.231440824480E+04    0.62432E-03   -0.70573E-04  3719   0.131E-02    0.199E+00
RMM:  23    -0.231440779396E+04    0.45084E-03   -0.57909E-05  2955   0.542E-03    0.198E+00
RMM:  24    -0.231440666589E+04    0.11281E-02   -0.35196E-05  2867   0.340E-03    0.195E+00
RMM:  25    -0.231440103269E+04    0.56332E-02   -0.83038E-04  4111   0.123E-02    0.175E+00
RMM:  26    -0.231438397094E+04    0.17062E-01   -0.11725E-02  4820   0.474E-02    0.117E+00
RMM:  27    -0.231437851546E+04    0.54555E-02   -0.47501E-03  4630   0.341E-02    0.112E+00
RMM:  28    -0.231436624386E+04    0.12272E-01   -0.14580E-02  4948   0.537E-02    0.137E+00
RMM:  29    -0.231435783904E+04    0.84048E-02   -0.10396E-02  4773   0.538E-02    0.175E+00
RMM:  30    -0.231435429096E+04    0.35481E-02   -0.36246E-03  4900   0.279E-02    0.191E+00
RMM:  31    -0.231435812792E+04   -0.38370E-02   -0.11587E-03  4418   0.173E-02    0.173E+00
RMM:  32    -0.231436203024E+04   -0.39023E-02   -0.25197E-03  4596   0.261E-02    0.151E+00
RMM:  33    -0.231437851709E+04   -0.16487E-01   -0.21559E-02  4917   0.662E-02    0.110E+00
RMM:  34    -0.231439725167E+04   -0.18735E-01   -0.22522E-02  5033   0.689E-02    0.160E+00
RMM:  35    -0.231441879611E+04   -0.21544E-01   -0.13793E-02  4973   0.517E-02    0.236E+00
RMM:  36    -0.231444773325E+04   -0.28937E-01   -0.11561E-02  4866   0.483E-02    0.290E+00
RMM:  37    -0.231444654474E+04    0.11885E-02   -0.93773E-04  3940   0.193E-02    0.289E+00
RMM:  38    -0.231444877474E+04   -0.22300E-02   -0.24219E-04  3459   0.653E-03    0.292E+00
RMM:  39    -0.231445061353E+04   -0.18388E-02   -0.56975E-05  2985   0.511E-03    0.293E+00
RMM:  40    -0.231444995837E+04    0.65516E-03   -0.85627E-06  2702   0.261E-03    0.292E+00
RMM:  41    -0.231444842608E+04    0.15323E-02   -0.22489E-05  2626   0.234E-03    0.291E+00
RMM:  42    -0.231444300564E+04    0.54204E-02   -0.27608E-04  3523   0.697E-03    0.286E+00
RMM:  43    -0.231443798704E+04    0.50186E-02   -0.31405E-04  3513   0.783E-03    0.280E+00
RMM:  44    -0.231443372927E+04    0.42578E-02   -0.28430E-04  3509   0.749E-03    0.273E+00
RMM:  45    -0.231443256140E+04    0.11679E-02   -0.59436E-05  2888   0.461E-03    0.271E+00
RMM:  46    -0.231443124851E+04    0.13129E-02   -0.38506E-05  2857   0.333E-03    0.268E+00
RMM:  47    -0.231442851757E+04    0.27309E-02   -0.90793E-05  3135   0.498E-03    0.263E+00
RMM:  48    -0.231442429337E+04    0.42242E-02   -0.24822E-04  3638   0.741E-03    0.253E+00
RMM:  49    -0.231441235323E+04    0.11940E-01   -0.19168E-03  4460   0.186E-02    0.220E+00
RMM:  50    -0.231439840039E+04    0.13953E-01   -0.42039E-03  4656   0.286E-02    0.169E+00
RMM:  51    -0.231438799781E+04    0.10403E-01   -0.49815E-03  4815   0.318E-02    0.129E+00
RMM:  52    -0.231437988756E+04    0.81102E-02   -0.51712E-03  4796   0.329E-02    0.112E+00
RMM:  53    -0.231437553492E+04    0.43526E-02   -0.22825E-03  4458   0.231E-02    0.111E+00
RMM:  54    -0.231436749579E+04    0.80391E-02   -0.43485E-03  4856   0.303E-02    0.124E+00
RMM:  55    -0.231436092469E+04    0.65711E-02   -0.30937E-03  4547   0.278E-02    0.143E+00
RMM:  56    -0.231435966445E+04    0.12602E-02   -0.57178E-04  3933   0.119E-02    0.147E+00
RMM:  57    -0.231436175835E+04   -0.20939E-02   -0.23106E-04  3556   0.836E-03    0.140E+00
RMM:  58    -0.231436401097E+04   -0.22526E-02   -0.36544E-04  3840   0.952E-03    0.132E+00
RMM:  59    -0.231437064676E+04   -0.66358E-02   -0.28481E-03  4597   0.240E-02    0.114E+00
RMM:  60    -0.231437544641E+04   -0.47996E-02   -0.22492E-03  4434   0.228E-02    0.106E+00
RMM:  61    -0.231437824213E+04   -0.27957E-02   -0.11076E-03  4274   0.153E-02    0.105E+00
RMM:  62    -0.231437988597E+04   -0.16438E-02   -0.40686E-04  3756   0.102E-02    0.105E+00
RMM:  63    -0.231438359120E+04   -0.37052E-02   -0.96582E-04  4343   0.141E-02    0.110E+00
RMM:  64    -0.231438565853E+04   -0.20673E-02   -0.43179E-04  3651   0.109E-02    0.115E+00
RMM:  65    -0.231438797408E+04   -0.23156E-02   -0.39384E-04  3805   0.936E-03    0.121E+00
RMM:  66    -0.231438919040E+04   -0.12163E-02   -0.13560E-04  3204   0.682E-03    0.126E+00
RMM:  67    -0.231439041837E+04   -0.12280E-02   -0.13006E-04  3382   0.602E-03    0.129E+00
RMM:  68    -0.231439038696E+04    0.31413E-04   -0.12526E-05  2818   0.379E-03    0.129E+00
RMM:  69    -0.231439055409E+04   -0.16713E-03   -0.45288E-06  2569   0.160E-03    0.130E+00
RMM:  70    -0.231439031586E+04    0.23823E-03   -0.20877E-06  2445   0.165E-03    0.129E+00
RMM:  71    -0.231439031749E+04   -0.16322E-05   -0.21461E-07  1538   0.658E-04
   2 F= -.23352635E+04 E0= -.23352527E+04  d E =-.102968E+00  mag=     8.3259
       N       E                     dE             d eps       ncg     rms          rms(c)
DAV:   1    -0.231437802440E+04    0.12291E-01   -0.40697E-01  4552   0.540E-01    0.101E+00
RMM:   2    -0.231441016024E+04   -0.32136E-01   -0.12614E-01  5489   0.162E-01    0.171E+00
RMM:   3    -0.231439300154E+04    0.17159E-01   -0.33440E-02  4798   0.116E-01    0.107E+00
RMM:   4    -0.231438153922E+04    0.11462E-01   -0.44992E-02  5284   0.844E-02    0.149E+00
RMM:   5    -0.231436824054E+04    0.13299E-01   -0.16200E-02  4760   0.554E-02    0.176E+00
RMM:   6    -0.231438073902E+04   -0.12498E-01   -0.63217E-03  4629   0.400E-02    0.142E+00
RMM:   7    -0.231439742817E+04   -0.16689E-01   -0.34013E-02  4858   0.803E-02    0.114E+00
RMM:   8    -0.231441207516E+04   -0.14647E-01   -0.24953E-02  4828   0.704E-02    0.165E+00
RMM:   9    -0.231440287289E+04    0.92023E-02   -0.22918E-03  4333   0.291E-02    0.122E+00
RMM:  10    -0.231438436139E+04    0.18511E-01   -0.32769E-02  4837   0.788E-02    0.107E+00
RMM:  11    -0.231437216083E+04    0.12201E-01   -0.17964E-02  4767   0.658E-02    0.148E+00
RMM:  12    -0.231436128502E+04    0.10876E-01   -0.15035E-02  5123   0.585E-02    0.192E+00
RMM:  13    -0.231435723251E+04    0.40525E-02   -0.18124E-03  4493   0.264E-02    0.195E+00
RMM:  14    -0.231436068629E+04   -0.34538E-02   -0.37713E-04  3387   0.999E-03    0.194E+00
RMM:  15    -0.231436688473E+04   -0.61984E-02   -0.25387E-03  4337   0.295E-02    0.175E+00
RMM:  16    -0.231437227689E+04   -0.53922E-02   -0.73106E-03  4703   0.439E-02    0.134E+00
RMM:  17    -0.231438848207E+04   -0.16205E-01   -0.20148E-02  5036   0.644E-02    0.931E-01
RMM:  18    -0.231440071749E+04   -0.12235E-01   -0.13417E-02  4921   0.531E-02    0.118E+00
RMM:  19    -0.231440343293E+04   -0.27154E-02   -0.22845E-03  4682   0.221E-02    0.130E+00
RMM:  20    -0.231440340989E+04    0.23040E-04   -0.20690E-04  3217   0.599E-03    0.131E+00
RMM:  21    -0.231440366013E+04   -0.25024E-03   -0.15211E-05  2897   0.342E-03    0.132E+00
RMM:  22    -0.231439708317E+04    0.65770E-02   -0.18506E-03  4306   0.183E-02    0.108E+00
RMM:  23    -0.231437923582E+04    0.17847E-01   -0.22202E-02  4883   0.663E-02    0.114E+00
RMM:  24    -0.231436729193E+04    0.11944E-01   -0.14209E-02  4857   0.575E-02    0.158E+00
RMM:  25    -0.231436887168E+04   -0.15797E-02   -0.91206E-04  4052   0.163E-02    0.151E+00
RMM:  26    -0.231436861850E+04    0.25318E-03   -0.59559E-05  3068   0.419E-03    0.152E+00
RMM:  27    -0.231437492491E+04   -0.63064E-02   -0.28003E-03  4508   0.245E-02    0.126E+00
RMM:  28    -0.231438542450E+04   -0.10500E-01   -0.75908E-03  4770   0.395E-02    0.987E-01
RMM:  29    -0.231439314952E+04   -0.77250E-02   -0.57622E-03  4728   0.345E-02    0.998E-01
RMM:  30    -0.231440572909E+04   -0.12580E-01   -0.91120E-03  4828   0.414E-02    0.142E+00
RMM:  31    -0.231441215022E+04   -0.64211E-02   -0.27796E-03  4422   0.265E-02    0.170E+00
RMM:  32    -0.231441415974E+04   -0.20095E-02   -0.66520E-04  3828   0.108E-02    0.179E+00
RMM:  33    -0.231441394105E+04    0.21869E-03   -0.47559E-05  2944   0.576E-03    0.179E+00
RMM:  34    -0.231441247272E+04    0.14683E-02   -0.45665E-05  2920   0.364E-03    0.173E+00
RMM:  35    -0.231440972496E+04    0.27478E-02   -0.22395E-04  3446   0.646E-03    0.162E+00
RMM:  36    -0.231440259106E+04    0.71339E-02   -0.19540E-03  4419   0.188E-02    0.133E+00
RMM:  37    -0.231439330826E+04    0.92828E-02   -0.58499E-03  4729   0.337E-02    0.105E+00
RMM:  38    -0.231438772943E+04    0.55788E-02   -0.41649E-03  4728   0.294E-02    0.104E+00
RMM:  39    -0.231438688570E+04    0.84373E-03   -0.72656E-04  3974   0.119E-02    0.105E+00
RMM:  40    -0.231438632055E+04    0.56515E-03   -0.11854E-04  3145   0.519E-03    0.106E+00
RMM:  41    -0.231438615663E+04    0.16392E-03   -0.12835E-05  2827   0.322E-03    0.106E+00
RMM:  42    -0.231438701062E+04   -0.85399E-03   -0.44021E-05  2746   0.338E-03    0.105E+00
RMM:  43    -0.231438963942E+04   -0.26288E-02   -0.51379E-04  3854   0.979E-03    0.104E+00
RMM:  44    -0.231439521295E+04   -0.55735E-02   -0.23505E-03  4442   0.210E-02    0.109E+00
RMM:  45    -0.231439786530E+04   -0.26524E-02   -0.85066E-04  3928   0.141E-02    0.117E+00
RMM:  46    -0.231439846705E+04   -0.60175E-03   -0.17985E-04  3107   0.606E-03    0.119E+00
RMM:  47    -0.231439714274E+04    0.13243E-02   -0.73160E-05  2885   0.499E-03    0.115E+00
RMM:  48    -0.231439745117E+04   -0.30843E-03   -0.38565E-06  2440   0.191E-03    0.116E+00
RMM:  49    -0.231439744046E+04    0.10712E-04   -0.80864E-07  1947   0.906E-04    0.116E+00
RMM:  50    -0.231439408914E+04    0.33513E-02   -0.59135E-04  3904   0.103E-02    0.107E+00
RMM:  51    -0.231438970311E+04    0.43860E-02   -0.14880E-03  4276   0.168E-02    0.103E+00
RMM:  52    -0.231438328081E+04    0.64223E-02   -0.37675E-03  4657   0.267E-02    0.112E+00
RMM:  53    -0.231437926322E+04    0.40176E-02   -0.20783E-03  4409   0.213E-02    0.123E+00
RMM:  54    -0.231437569704E+04    0.35662E-02   -0.15916E-03  4485   0.184E-02    0.136E+00
RMM:  55    -0.231437369699E+04    0.20001E-02   -0.69642E-04  4016   0.136E-02    0.145E+00
RMM:  56    -0.231437419865E+04   -0.50166E-03   -0.39421E-05  2923   0.438E-03    0.143E+00
RMM:  57    -0.231437872381E+04   -0.45252E-02   -0.16054E-03  4300   0.184E-02    0.125E+00
RMM:  58    -0.231438030434E+04   -0.15805E-02   -0.43930E-04  3725   0.111E-02    0.119E+00
RMM:  59    -0.231437850481E+04    0.17995E-02   -0.13527E-04  3201   0.626E-03    0.125E+00
RMM:  60    -0.231437863961E+04   -0.13480E-03   -0.42874E-06  2431   0.199E-03    0.125E+00
RMM:  61    -0.231438423570E+04   -0.55961E-02   -0.21931E-03  4430   0.203E-02    0.109E+00
RMM:  62    -0.231451315559E+04   -0.12892E+00   -0.26789E-01  4877   0.209E-01    0.263E+00
RMM:  63    -0.231451534774E+04   -0.21922E-02   -0.18866E-02  4600   0.890E-02    0.257E+00
RMM:  64    -0.231451423333E+04    0.11144E-02   -0.25805E-03  4516   0.170E-02    0.259E+00
RMM:  65    -0.231451412743E+04    0.10590E-03   -0.15630E-04  3136   0.102E-02    0.259E+00
RMM:  66    -0.231451424897E+04   -0.12155E-03   -0.33173E-05  2867   0.250E-03    0.259E+00
RMM:  67    -0.231447898456E+04    0.35264E-01   -0.11864E-02  4727   0.446E-02    0.291E+00
RMM:  68    -0.231449650642E+04   -0.17522E-01   -0.21975E-03  4646   0.218E-02    0.280E+00
RMM:  69    -0.231450635032E+04   -0.98439E-02   -0.14231E-03  4298   0.159E-02    0.267E+00
RMM:  70    -0.231450109748E+04    0.52528E-02   -0.14196E-04  3147   0.757E-03    0.272E+00
RMM:  71    -0.231449431647E+04    0.67810E-02   -0.37662E-04  3604   0.799E-03    0.277E+00
RMM:  72    -0.231449449514E+04   -0.17867E-03   -0.39123E-05  2750   0.391E-03    0.274E+00
RMM:  73    -0.231450099562E+04   -0.65005E-02   -0.47488E-04  3750   0.897E-03    0.267E+00
RMM:  74    -0.231450019181E+04    0.80380E-03   -0.20346E-05  2739   0.396E-03    0.268E+00
RMM:  75    -0.231449960254E+04    0.58928E-03   -0.56933E-06  2397   0.146E-03    0.268E+00
RMM:  76    -0.231449692933E+04    0.26732E-02   -0.64575E-05  2886   0.344E-03    0.270E+00
RMM:  77    -0.231451103553E+04   -0.14106E-01   -0.19180E-03  4326   0.182E-02    0.254E+00
RMM:  78    -0.231451195151E+04   -0.91598E-03   -0.13183E-04  3012   0.729E-03    0.253E+00
RMM:  79    -0.231451193178E+04    0.19727E-04   -0.18321E-05  2711   0.198E-03    0.253E+00
RMM:  80    -0.231451234427E+04   -0.41249E-03   -0.38167E-06  2434   0.178E-03    0.252E+00
RMM:  81    -0.231451223288E+04    0.11139E-03   -0.30576E-06  2342   0.124E-03    0.252E+00
RMM:  82    -0.231455632014E+04   -0.44087E-01   -0.27140E-02  4819   0.657E-02    0.171E+00
RMM:  83    -0.231455086720E+04    0.54529E-02   -0.11448E-03  4083   0.247E-02    0.186E+00
RMM:  84    -0.231455202119E+04   -0.11540E-02   -0.11567E-04  3030   0.488E-03    0.184E+00
RMM:  85    -0.231455094263E+04    0.10786E-02   -0.34333E-05  2788   0.384E-03    0.186E+00
RMM:  86    -0.231455059389E+04    0.34874E-03   -0.79009E-06  2563   0.215E-03    0.187E+00
RMM:  87    -0.231454651647E+04    0.40774E-02   -0.21822E-04  3258   0.601E-03    0.194E+00
RMM:  88    -0.231454783228E+04   -0.13158E-02   -0.59337E-05  2809   0.418E-03    0.190E+00
RMM:  89    -0.231454846625E+04   -0.63397E-03   -0.24999E-05  2667   0.277E-03    0.189E+00
RMM:  90    -0.231454934189E+04   -0.87563E-03   -0.13977E-05  2629   0.233E-03    0.187E+00
RMM:  91    -0.231454834850E+04    0.99338E-03   -0.10549E-04  2820   0.437E-03    0.192E+00
RMM:  92    -0.231453985280E+04    0.84957E-02   -0.26731E-03  4406   0.209E-02    0.217E+00
RMM:  93    -0.231454260287E+04   -0.27501E-02   -0.18210E-04  3283   0.898E-03    0.214E+00
RMM:  94    -0.231455235585E+04   -0.97530E-02   -0.98317E-04  4094   0.128E-02    0.199E+00
RMM:  95    -0.231455621761E+04   -0.38618E-02   -0.23974E-04  3301   0.813E-03    0.196E+00
RMM:  96    -0.231455748620E+04   -0.12686E-02   -0.10800E-04  3222   0.554E-03    0.197E+00
RMM:  97    -0.231454488029E+04    0.12606E-01   -0.15177E-02  4796   0.514E-02    0.261E+00
RMM:  98    -0.231454802916E+04   -0.31489E-02   -0.18447E-03  4389   0.265E-02    0.266E+00
RMM:  99    -0.231455640478E+04   -0.83756E-02   -0.78446E-04  4229   0.121E-02    0.253E+00
RMM: 100    -0.231456424322E+04   -0.78384E-02   -0.78721E-04  3912   0.132E-02    0.242E+00
RMM: 101    -0.231457192896E+04   -0.76857E-02   -0.72528E-04  4110   0.115E-02    0.235E+00
RMM: 102    -0.231464515048E+04   -0.73222E-01   -0.70864E-02  4948   0.104E-01    0.233E+00
RMM: 103    -0.231464725777E+04   -0.21073E-02   -0.57929E-03  4505   0.571E-02    0.223E+00
RMM: 104    -0.231464807849E+04   -0.82073E-03   -0.17036E-03  4652   0.170E-02    0.211E+00
RMM: 105    -0.231464921097E+04   -0.11325E-02   -0.24078E-03  4382   0.214E-02    0.193E+00
RMM: 106    -0.231464211910E+04    0.70919E-02   -0.21045E-02  4905   0.583E-02    0.153E+00
RMM: 107    -0.231457989005E+04    0.62229E-01   -0.21653E-01  4978   0.179E-01    0.286E+00
RMM: 108    -0.231460685528E+04   -0.26965E-01   -0.21110E-02  5569   0.822E-02    0.210E+00
RMM: 109    -0.231461960805E+04   -0.12753E-01   -0.26578E-02  4816   0.682E-02    0.139E+00
RMM: 110    -0.231461906322E+04    0.54483E-03   -0.13369E-02  4659   0.565E-02    0.967E-01
RMM: 111    -0.231461278863E+04    0.62746E-02   -0.13908E-02  5039   0.512E-02    0.657E-01
RMM: 112    -0.231461141113E+04    0.13775E-02   -0.15795E-03  4599   0.236E-02    0.604E-01
RMM: 113    -0.231461039578E+04    0.10153E-02   -0.42848E-04  4216   0.977E-03    0.579E-01
RMM: 114    -0.231461019050E+04    0.20529E-03   -0.96287E-04  4698   0.154E-02    0.491E-01
RMM: 115    -0.231460965004E+04    0.54046E-03   -0.18163E-03  4619   0.195E-02    0.374E-01
RMM: 116    -0.231460913254E+04    0.51749E-03   -0.12238E-03  4451   0.184E-02    0.278E-01
RMM: 117    -0.231460875635E+04    0.37620E-03   -0.10186E-03  4550   0.158E-02    0.200E-01
RMM: 118    -0.231460904579E+04   -0.28945E-03   -0.69954E-04  4222   0.142E-02    0.132E-01
RMM: 119    -0.231460917953E+04   -0.13374E-03   -0.21317E-04  3564   0.819E-03    0.102E-01
RMM: 120    -0.231460919594E+04   -0.16411E-04   -0.39664E-05  2980   0.513E-03    0.952E-02
RMM: 121    -0.231460921345E+04   -0.17510E-04   -0.34013E-05  2935   0.356E-03    0.816E-02
RMM: 122    -0.231460934550E+04   -0.13205E-03   -0.86502E-04  4351   0.119E-02    0.186E-02
RMM: 123    -0.231460934208E+04    0.34230E-05   -0.50884E-05  2987   0.719E-03
   3 F= -.23354818E+04 E0= -.23354818E+04  d E =-.321295E+00  mag=     5.9987
       N       E                     dE             d eps       ncg     rms          rms(c)
DAV:   1    -0.231459496920E+04    0.14376E-01   -0.30455E+00  4472   0.138E+00    0.622E-01
RMM:   2    -0.231466037488E+04   -0.65406E-01   -0.67547E-01  6302   0.321E-01    0.470E-01
RMM:   3    -0.231466652156E+04   -0.61467E-02   -0.76797E-02  5772   0.143E-01    0.463E-01
RMM:   4    -0.231466488581E+04    0.16357E-02   -0.73934E-03  5079   0.301E-02    0.168E-01
RMM:   5    -0.231466456889E+04    0.31692E-03   -0.77013E-04  4261   0.127E-02    0.121E-01
RMM:   6    -0.231466453150E+04    0.37392E-04   -0.69024E-04  4194   0.127E-02    0.133E-01
RMM:   7    -0.231466436803E+04    0.16347E-03   -0.28099E-04  3641   0.943E-03    0.324E-02
RMM:   8    -0.231466435783E+04    0.10192E-04   -0.44245E-05  2921   0.564E-03    0.125E-02
RMM:   9    -0.231466435666E+04    0.11708E-05   -0.11451E-05  2866   0.353E-03
   4 F= -.23355356E+04 E0= -.23355356E+04  d E =-.537835E-01  mag=     5.9997
       N       E                     dE             d eps       ncg     rms          rms(c)
DAV:   1    -0.231412004528E+04    0.54431E+00   -0.27377E+01  4464   0.413E+00    0.186E+00
RMM:   2    -0.231472085736E+04   -0.60081E+00   -0.62557E+00  6422   0.987E-01    0.127E+00
RMM:   3    -0.231479022082E+04   -0.69363E-01   -0.77348E-01  5982   0.412E-01    0.151E+00
RMM:   4    -0.231477204245E+04    0.18178E-01   -0.67680E-02  6006   0.898E-02    0.557E-01
RMM:   5    -0.231476889144E+04    0.31510E-02   -0.85321E-03  5468   0.355E-02    0.403E-01
RMM:   6    -0.231476803060E+04    0.86084E-03   -0.73528E-03  5636   0.345E-02    0.419E-01
RMM:   7    -0.231476650283E+04    0.15278E-02   -0.30014E-03  5218   0.248E-02    0.146E-01
RMM:   8    -0.231476629662E+04    0.20621E-03   -0.64607E-04  4463   0.145E-02    0.538E-02
RMM:   9    -0.231476629028E+04    0.63486E-05   -0.12391E-04  3303   0.888E-03    0.281E-02
RMM:  10    -0.231476630190E+04   -0.11626E-04   -0.56865E-05  2966   0.563E-03    0.118E-02
RMM:  11    -0.231476631720E+04   -0.15297E-04   -0.17044E-05  2894   0.424E-03    0.739E-03
RMM:  12    -0.231476632831E+04   -0.11113E-04   -0.78525E-06  2839   0.337E-03    0.458E-03
RMM:  13    -0.231476633925E+04   -0.10942E-04   -0.62286E-06  2832   0.289E-03    0.248E-03
RMM:  14    -0.231476634520E+04   -0.59424E-05   -0.34088E-06  2768   0.245E-03
   5 F= -.23356338E+04 E0= -.23356338E+04  d E =-.151969E+00  mag=     6.0000
       N       E                     dE             d eps       ncg     rms          rms(c)
DAV:   1    -0.231194216961E+04    0.28242E+01   -0.10932E+02  4456   0.828E+00    0.377E+00
RMM:   2    -0.231453878177E+04   -0.25966E+01   -0.26935E+01  6501   0.209E+00    0.272E+00
RMM:   3    -0.231481241575E+04   -0.27363E+00   -0.31428E+00  5895   0.819E-01    0.309E+00
RMM:   4    -0.231473814263E+04    0.74273E-01   -0.25971E-01  6195   0.175E-01    0.122E+00
RMM:   5    -0.231472790914E+04    0.10233E-01   -0.33235E-02  5615   0.635E-02    0.103E+00
RMM:   6    -0.231471766117E+04    0.10248E-01   -0.25838E-02  5912   0.624E-02    0.779E-01
RMM:   7    -0.231471126707E+04    0.63941E-02   -0.14322E-02  5292   0.534E-02    0.279E-01
RMM:   8    -0.231471070343E+04    0.56364E-03   -0.31956E-03  4913   0.349E-02    0.142E-01
RMM:   9    -0.231471067710E+04    0.26328E-04   -0.68363E-04  4607   0.170E-02    0.676E-02
RMM:  10    -0.231471073577E+04   -0.58669E-04   -0.17389E-04  3821   0.974E-03    0.254E-02
RMM:  11    -0.231471082158E+04   -0.85808E-04   -0.57947E-05  3323   0.641E-03    0.139E-02
RMM:  12    -0.231471086988E+04   -0.48302E-04   -0.21424E-05  2943   0.486E-03    0.951E-03
RMM:  13    -0.231471090710E+04   -0.37218E-04   -0.14675E-05  2868   0.413E-03    0.563E-03
RMM:  14    -0.231471092906E+04   -0.21960E-04   -0.85292E-06  2831   0.371E-03    0.386E-03
RMM:  15    -0.231471094557E+04   -0.16508E-04   -0.68700E-06  2816   0.299E-03    0.205E-03
RMM:  16    -0.231471095075E+04   -0.51770E-05   -0.33299E-06  2726   0.260E-03
   6 F= -.23355704E+04 E0= -.23355704E+04  d E =-.886019E-01  mag=     6.0000
       N       E                     dE             d eps       ncg     rms          rms(c)
DAV:   1    -0.231354216228E+04    0.11688E+01   -0.51198E+01  4464   0.565E+00    0.273E+00
RMM:   2    -0.231483990398E+04   -0.12977E+01   -0.12665E+01  6463   0.145E+00    0.346E+00
RMM:   3    -0.231481562834E+04    0.24276E-01   -0.14151E+00  5988   0.573E-01    0.173E+00
RMM:   4    -0.231479503202E+04    0.20596E-01   -0.11968E-01  5649   0.120E-01    0.690E-01
RMM:   5    -0.231478810750E+04    0.69245E-02   -0.13122E-02  5183   0.523E-02    0.489E-01
RMM:   6    -0.231478519993E+04    0.29076E-02   -0.12143E-02  5208   0.560E-02    0.178E-01
RMM:   7    -0.231478518618E+04    0.13753E-04   -0.22415E-03  5182   0.266E-02    0.190E-01
RMM:   8    -0.231478497386E+04    0.21232E-03   -0.54159E-04  3843   0.113E-02    0.772E-02
RMM:   9    -0.231478495060E+04    0.23251E-04   -0.14584E-04  3310   0.780E-03    0.446E-02
RMM:  10    -0.231478496860E+04   -0.18000E-04   -0.10911E-04  3212   0.712E-03    0.163E-02
RMM:  11    -0.231478499246E+04   -0.23853E-04   -0.25487E-05  2926   0.478E-03    0.931E-03
RMM:  12    -0.231478500664E+04   -0.14180E-04   -0.10907E-05  2849   0.387E-03    0.594E-03
RMM:  13    -0.231478501824E+04   -0.11601E-04   -0.75536E-06  2833   0.325E-03    0.387E-03
RMM:  14    -0.231478502640E+04   -0.81610E-05   -0.57407E-06  2812   0.290E-03
   7 F= -.23356500E+04 E0= -.23356500E+04  d E =-.168167E+00  mag=     6.0000
       N       E                     dE             d eps       ncg     rms          rms(c)
DAV:   1    -0.231475034415E+04    0.34674E-01   -0.47305E+00  4464   0.162E+00    0.866E-01
RMM:   2    -0.231486860913E+04   -0.11826E+00   -0.12038E+00  6178   0.411E-01    0.764E-01
RMM:   3    -0.231487762876E+04   -0.90196E-02   -0.13692E-01  5914   0.175E-01    0.642E-01
RMM:   4    -0.231487499040E+04    0.26384E-02   -0.13587E-02  5552   0.406E-02    0.247E-01
RMM:   5    -0.231487474640E+04    0.24400E-03   -0.15260E-03  3972   0.159E-02    0.213E-01
RMM:   6    -0.231487430260E+04    0.44380E-03   -0.81940E-04  4603   0.134E-02    0.125E-01
RMM:   7    -0.231487414931E+04    0.15330E-03   -0.50367E-04  4377   0.130E-02    0.449E-02
RMM:   8    -0.231487413859E+04    0.10721E-04   -0.95914E-05  2995   0.754E-03    0.192E-02
RMM:   9    -0.231487413587E+04    0.27184E-05   -0.19392E-05  2874   0.460E-03
   8 F= -.23357388E+04 E0= -.23357388E+04  d E =-.887924E-01  mag=     6.0000
       N       E                     dE             d eps       ncg     rms          rms(c)
DAV:   1    -0.231386019913E+04    0.10139E+01   -0.42246E+01  4464   0.488E+00    0.258E+00
RMM:   2    -0.231497182447E+04   -0.11116E+01   -0.11486E+01  6228   0.128E+00    0.217E+00
RMM:   3    -0.231507509456E+04   -0.10327E+00   -0.14538E+00  5959   0.561E-01    0.200E+00
RMM:   4    -0.231504897331E+04    0.26121E-01   -0.12463E-01  6165   0.122E-01    0.850E-01
RMM:   5    -0.231504504882E+04    0.39245E-02   -0.17326E-02  5465   0.467E-02    0.666E-01
RMM:   6    -0.231504044581E+04    0.46030E-02   -0.90718E-03  5666   0.404E-02    0.371E-01
RMM:   7    -0.231503903426E+04    0.14115E-02   -0.39313E-03  5121   0.310E-02    0.154E-01
RMM:   8    -0.231503890613E+04    0.12813E-03   -0.11140E-03  4760   0.218E-02    0.683E-02
RMM:   9    -0.231503888455E+04    0.21578E-04   -0.20865E-04  3739   0.973E-03    0.325E-02
RMM:  10    -0.231503888159E+04    0.29603E-05   -0.60302E-05  3022   0.663E-03
   9 F= -.23359029E+04 E0= -.23359029E+04  d E =-.252867E+00  mag=     6.0000
       N       E                     dE             d eps       ncg     rms          rms(c)
DAV:   1    -0.231481585528E+04    0.22303E+00   -0.90850E+00  4496   0.226E+00    0.117E+00
RMM:   2    -0.231504356519E+04   -0.22771E+00   -0.23168E+00  6196   0.578E-01    0.110E+00
RMM:   3    -0.231506234655E+04   -0.18781E-01   -0.28563E-01  5946   0.256E-01    0.972E-01
RMM:   4    -0.231505596282E+04    0.63837E-02   -0.26494E-02  5836   0.570E-02    0.372E-01
RMM:   5    -0.231505517048E+04    0.79234E-03   -0.31755E-03  4879   0.213E-02    0.275E-01
RMM:   6    -0.231505430518E+04    0.86530E-03   -0.16397E-03  5133   0.188E-02    0.165E-01
RMM:   7    -0.231505399210E+04    0.31307E-03   -0.97106E-04  4902   0.173E-02    0.481E-02
RMM:   8    -0.231505399077E+04    0.13376E-05   -0.14774E-04  3585   0.911E-03    0.238E-02
RMM:   9    -0.231505399284E+04   -0.20762E-05   -0.35265E-05  2942   0.543E-03
  10 F= -.23359178E+04 E0= -.23359178E+04  d E =-.267810E+00  mag=     6.0000
       N       E                     dE             d eps       ncg     rms          rms(c)
DAV:   1    -0.231498114735E+04    0.72843E-01   -0.75367E+00  4464   0.253E+00    0.121E+00
RMM:   2    -0.231513112886E+04   -0.14998E+00   -0.15535E+00  5972   0.589E-01    0.855E-01
RMM:   3    -0.231514731701E+04   -0.16188E-01   -0.17961E-01  5730   0.243E-01    0.103E+00
RMM:   4    -0.231513828713E+04    0.90299E-02   -0.18597E-02  5933   0.604E-02    0.289E-01
RMM:   5    -0.231513798363E+04    0.30350E-03   -0.38671E-03  5124   0.288E-02    0.261E-01
RMM:   6    -0.231513728613E+04    0.69750E-03   -0.16243E-03  5139   0.220E-02    0.129E-01
RMM:   7    -0.231513707078E+04    0.21535E-03   -0.52524E-04  4981   0.175E-02    0.447E-02
RMM:   8    -0.231513704277E+04    0.28012E-04   -0.94853E-05  3843   0.875E-03    0.199E-02
RMM:   9    -0.231513702835E+04    0.14414E-04   -0.27389E-05  3023   0.535E-03    0.103E-02
RMM:  10    -0.231513702200E+04    0.63590E-05   -0.15716E-05  2873   0.394E-03
  11 F= -.23360005E+04 E0= -.23360005E+04  d E =-.827433E-01  mag=     6.0000
       N       E                     dE             d eps       ncg     rms          rms(c)
DAV:   1    -0.231499526656E+04    0.14176E+00   -0.82651E+00  4464   0.264E+00    0.126E+00
RMM:   2    -0.231515957443E+04   -0.16431E+00   -0.17032E+00  5977   0.614E-01    0.886E-01
RMM:   3    -0.231517766775E+04   -0.18093E-01   -0.19781E-01  5748   0.252E-01    0.109E+00
RMM:   4    -0.231516754440E+04    0.10123E-01   -0.20094E-02  5922   0.629E-02    0.297E-01
RMM:   5    -0.231516717461E+04    0.36979E-03   -0.41101E-03  5143   0.301E-02    0.265E-01
RMM:   6    -0.231516644073E+04    0.73388E-03   -0.17574E-03  5215   0.232E-02    0.134E-01
RMM:   7    -0.231516618945E+04    0.25128E-03   -0.58707E-04  4974   0.180E-02    0.445E-02
RMM:   8    -0.231516615529E+04    0.34160E-04   -0.10101E-04  3926   0.901E-03    0.201E-02
RMM:   9    -0.231516613756E+04    0.17732E-04   -0.31062E-05  3116   0.556E-03    0.107E-02
RMM:  10    -0.231516613066E+04    0.68975E-05   -0.19062E-05  2895   0.433E-03
  12 F= -.23360293E+04 E0= -.23360293E+04  d E =-.111541E+00  mag=     6.0000
       N       E                     dE             d eps       ncg     rms          rms(c)
DAV:   1    -0.231509539757E+04    0.70740E-01   -0.58100E+00  4472   0.184E+00    0.960E-01
RMM:   2    -0.231523736867E+04   -0.14197E+00   -0.14557E+00  6214   0.490E-01    0.809E-01
RMM:   3    -0.231524980360E+04   -0.12435E-01   -0.15579E-01  5800   0.190E-01    0.793E-01
RMM:   4    -0.231524488791E+04    0.49157E-02   -0.14825E-02  5722   0.444E-02    0.224E-01
RMM:   5    -0.231524432768E+04    0.56023E-03   -0.16648E-03  4689   0.187E-02    0.138E-01
RMM:   6    -0.231524420977E+04    0.11791E-03   -0.94074E-04  4881   0.166E-02    0.101E-01
RMM:   7    -0.231524414151E+04    0.68261E-04   -0.31764E-04  3400   0.114E-02    0.627E-02
RMM:   8    -0.231524410854E+04    0.32975E-04   -0.52740E-05  2947   0.576E-03    0.180E-02
RMM:   9    -0.231524410545E+04    0.30886E-05   -0.19416E-05  2888   0.423E-03
  13 F= -.23361063E+04 E0= -.23361063E+04  d E =-.769913E-01  mag=     6.0000
       N       E                     dE             d eps       ncg     rms          rms(c)
DAV:   1    -0.231468441171E+04    0.55970E+00   -0.23963E+01  4464   0.376E+00    0.197E+00
RMM:   2    -0.231529425275E+04   -0.60984E+00   -0.62275E+00  6174   0.103E+00    0.189E+00
RMM:   3    -0.231533511243E+04   -0.40860E-01   -0.67827E-01  5773   0.402E-01    0.153E+00
RMM:   4    -0.231531740444E+04    0.17708E-01   -0.61877E-02  6014   0.910E-02    0.500E-01
RMM:   5    -0.231531547083E+04    0.19336E-02   -0.73597E-03  5331   0.371E-02    0.378E-01
RMM:   6    -0.231531457506E+04    0.89576E-03   -0.57256E-03  5543   0.329E-02    0.307E-01
RMM:   7    -0.231531371991E+04    0.85515E-03   -0.17985E-03  5160   0.238E-02    0.863E-02
RMM:   8    -0.231531366024E+04    0.59669E-04   -0.37635E-04  4359   0.123E-02    0.404E-02
RMM:   9    -0.231531363371E+04    0.26529E-04   -0.79521E-05  3309   0.830E-03    0.191E-02
RMM:  10    -0.231531362639E+04    0.73227E-05   -0.32190E-05  3039   0.510E-03
  14 F= -.23361738E+04 E0= -.23361738E+04  d E =-.144478E+00  mag=     6.0000
       N       E                     dE             d eps       ncg     rms          rms(c)
DAV:   1    -0.231528694954E+04    0.26684E-01   -0.62153E+00  4464   0.223E+00    0.100E+00
RMM:   2    -0.231538679797E+04   -0.99848E-01   -0.10133E+00  5969   0.517E-01    0.108E+00
RMM:   3    -0.231538852503E+04   -0.17271E-02   -0.10935E-01  5736   0.196E-01    0.717E-01
RMM:   4    -0.231538384301E+04    0.46820E-02   -0.10966E-02  5522   0.484E-02    0.239E-01
RMM:   5    -0.231538342738E+04    0.41563E-03   -0.25258E-03  5101   0.305E-02    0.214E-01
RMM:   6    -0.231538310121E+04    0.32617E-03   -0.17108E-03  5409   0.231E-02    0.132E-01
RMM:   7    -0.231538292330E+04    0.17791E-03   -0.26761E-04  4389   0.137E-02    0.292E-02
RMM:   8    -0.231538290007E+04    0.23225E-04   -0.72528E-05  3142   0.653E-03    0.163E-02
RMM:   9    -0.231538289413E+04    0.59430E-05   -0.23255E-05  2947   0.463E-03
  15 F= -.23362417E+04 E0= -.23362417E+04  d E =-.678440E-01  mag=     6.0000
       N       E                     dE             d eps       ncg     rms          rms(c)
DAV:   1    -0.231534231952E+04    0.40581E-01   -0.37370E+00  4504   0.173E+00    0.775E-01
RMM:   2    -0.231540215361E+04   -0.59834E-01   -0.60537E-01  5981   0.405E-01    0.854E-01
RMM:   3    -0.231540267683E+04   -0.52322E-03   -0.63843E-02  5736   0.149E-01    0.543E-01
RMM:   4    -0.231539999308E+04    0.26837E-02   -0.66896E-03  5373   0.375E-02    0.183E-01
RMM:   5    -0.231539968501E+04    0.30807E-03   -0.15064E-03  5067   0.246E-02    0.155E-01
RMM:   6    -0.231539953699E+04    0.14802E-03   -0.96103E-04  5137   0.175E-02    0.107E-01
RMM:   7    -0.231539941430E+04    0.12269E-03   -0.15910E-04  3868   0.104E-02    0.226E-02
RMM:   8    -0.231539939767E+04    0.16632E-04   -0.47672E-05  2966   0.582E-03    0.127E-02
RMM:   9    -0.231539939444E+04    0.32304E-05   -0.17379E-05  2910   0.418E-03
  16 F= -.23362571E+04 E0= -.23362571E+04  d E =-.832419E-01  mag=     6.0000
       N       E                     dE             d eps       ncg     rms          rms(c)
DAV:   1    -0.231542114807E+04   -0.21750E-01   -0.59897E+00  4456   0.217E+00    0.908E-01
RMM:   2    -0.231546803453E+04   -0.46886E-01   -0.43096E-01  5778   0.449E-01    0.122E+00
RMM:   3    -0.231545927143E+04    0.87631E-02   -0.48101E-02  5783   0.155E-01    0.533E-01
RMM:   4    -0.231545629796E+04    0.29735E-02   -0.58695E-03  4808   0.445E-02    0.198E-01
RMM:   5    -0.231545638558E+04   -0.87620E-04   -0.26932E-03  5381   0.361E-02    0.260E-01
RMM:   6    -0.231545573936E+04    0.64622E-03   -0.12953E-03  5551   0.211E-02    0.688E-02
RMM:   7    -0.231545569202E+04    0.47337E-04   -0.12654E-04  3587   0.103E-02    0.270E-02
RMM:   8    -0.231545567222E+04    0.19805E-04   -0.46927E-05  3012   0.561E-03    0.147E-02
RMM:   9    -0.231545566487E+04    0.73430E-05   -0.13443E-05  2886   0.427E-03
  17 F= -.23363126E+04 E0= -.23363126E+04  d E =-.555387E-01  mag=     6.0000
       N       E                     dE             d eps       ncg     rms          rms(c)
DAV:   1    -0.231545395123E+04    0.17210E-02   -0.17453E+00  4528   0.117E+00    0.490E-01
RMM:   2    -0.231546780214E+04   -0.13851E-01   -0.12657E-01  5784   0.244E-01    0.671E-01
RMM:   3    -0.231546501495E+04    0.27872E-02   -0.13964E-02  5734   0.837E-02    0.280E-01
RMM:   4    -0.231546414522E+04    0.86974E-03   -0.16836E-03  4714   0.241E-02    0.104E-01
RMM:   5    -0.231546413532E+04    0.98987E-05   -0.77395E-04  5081   0.199E-02    0.130E-01
RMM:   6    -0.231546397647E+04    0.15885E-03   -0.34984E-04  4851   0.115E-02    0.422E-02
RMM:   7    -0.231546395565E+04    0.20824E-04   -0.37815E-05  2962   0.607E-03    0.155E-02
RMM:   8    -0.231546394803E+04    0.76188E-05   -0.16836E-05  2869   0.377E-03
  18 F= -.23363205E+04 E0= -.23363205E+04  d E =-.634117E-01  mag=     6.0000
       N       E                     dE             d eps       ncg     rms          rms(c)
DAV:   1    -0.231542690584E+04    0.37050E-01   -0.57867E+00  4432   0.202E+00    0.889E-01
RMM:   2    -0.231552148202E+04   -0.94576E-01   -0.92182E-01  6071   0.474E-01    0.117E+00
RMM:   3    -0.231551870786E+04    0.27742E-02   -0.96539E-02  5794   0.166E-01    0.557E-01
RMM:   4    -0.231551676442E+04    0.19434E-02   -0.10446E-02  5263   0.431E-02    0.252E-01
RMM:   5    -0.231551669642E+04    0.68001E-04   -0.26078E-03  5347   0.268E-02    0.285E-01
RMM:   6    -0.231551592375E+04    0.77267E-03   -0.13139E-03  5072   0.206E-02    0.964E-02
RMM:   7    -0.231551584932E+04    0.74431E-04   -0.33536E-04  4154   0.140E-02    0.369E-02
RMM:   8    -0.231551583352E+04    0.15794E-04   -0.57932E-05  3184   0.579E-03    0.141E-02
RMM:   9    -0.231551582942E+04    0.41012E-05   -0.18158E-05  2914   0.436E-03
  19 F= -.23363728E+04 E0= -.23363728E+04  d E =-.523333E-01  mag=     6.0000
       N       E                     dE             d eps       ncg     rms          rms(c)
DAV:   1    -0.231545131337E+04    0.64520E-01   -0.52087E+00  4432   0.191E+00    0.840E-01
RMM:   2    -0.231553717988E+04   -0.85867E-01   -0.83444E-01  6064   0.448E-01    0.112E+00
RMM:   3    -0.231553446530E+04    0.27146E-02   -0.87379E-02  5797   0.158E-01    0.526E-01
RMM:   4    -0.231553274863E+04    0.17167E-02   -0.94305E-03  5232   0.407E-02    0.241E-01
RMM:   5    -0.231553264988E+04    0.98754E-04   -0.22575E-03  5270   0.252E-02    0.269E-01
RMM:   6    -0.231553194871E+04    0.70117E-03   -0.12034E-03  5039   0.197E-02    0.923E-02
RMM:   7    -0.231553187589E+04    0.72817E-04   -0.31990E-04  4127   0.135E-02    0.353E-02
RMM:   8    -0.231553186436E+04    0.11524E-04   -0.55586E-05  3215   0.576E-03    0.139E-02
RMM:   9    -0.231553186455E+04   -0.18939E-06   -0.18828E-05  2925   0.449E-03
  20 F= -.23363892E+04 E0= -.23363892E+04  d E =-.687729E-01  mag=     6.0000
       N       E                     dE             d eps       ncg     rms          rms(c)
DAV:   1    -0.231540454620E+04    0.12732E+00   -0.79665E+00  4432   0.238E+00    0.109E+00
RMM:   2    -0.231557196146E+04   -0.16742E+00   -0.16564E+00  6099   0.584E-01    0.124E+00
RMM:   3    -0.231557848652E+04   -0.65251E-02   -0.18605E-01  5818   0.222E-01    0.798E-01
RMM:   4    -0.231557441390E+04    0.40726E-02   -0.17607E-02  5627   0.539E-02    0.319E-01
RMM:   5    -0.231557391744E+04    0.49646E-03   -0.33549E-03  5416   0.275E-02    0.304E-01
RMM:   6    -0.231557294919E+04    0.96824E-03   -0.18305E-03  5056   0.242E-02    0.108E-01
RMM:   7    -0.231557284261E+04    0.10658E-03   -0.54832E-04  4671   0.171E-02    0.326E-02
RMM:   8    -0.231557283001E+04    0.12596E-04   -0.73823E-05  3561   0.719E-03    0.176E-02
RMM:   9    -0.231557282328E+04    0.67350E-05   -0.28137E-05  3045   0.552E-03
  21 F= -.23364291E+04 E0= -.23364291E+04  d E =-.399045E-01  mag=     6.0000
       N       E                     dE             d eps       ncg     rms          rms(c)
DAV:   1    -0.231554102836E+04    0.31802E-01   -0.18457E+00  4552   0.114E+00    0.521E-01
RMM:   2    -0.231557877100E+04   -0.37743E-01   -0.36714E-01  6083   0.282E-01    0.638E-01
RMM:   3    -0.231557916144E+04   -0.39044E-03   -0.39442E-02  5760   0.105E-01    0.348E-01
RMM:   4    -0.231557846366E+04    0.69777E-03   -0.40050E-03  5089   0.256E-02    0.154E-01
RMM:   5    -0.231557833032E+04    0.13334E-03   -0.75352E-04  4511   0.142E-02    0.143E-01
RMM:   6    -0.231557810441E+04    0.22591E-03   -0.41263E-04  4414   0.125E-02    0.523E-02
RMM:   7    -0.231557807438E+04    0.30029E-04   -0.12972E-04  3614   0.101E-02    0.158E-02
RMM:   8    -0.231557806973E+04    0.46561E-05   -0.24920E-05  2995   0.450E-03
  22 F= -.23364339E+04 E0= -.23364339E+04  d E =-.446219E-01  mag=     6.0000
       N       E                     dE             d eps       ncg     rms          rms(c)
DAV:   1    -0.231543791065E+04    0.14016E+00   -0.81959E+00  4432   0.232E+00    0.111E+00
RMM:   2    -0.231562386505E+04   -0.18595E+00   -0.17993E+00  6228   0.591E-01    0.139E+00
RMM:   3    -0.231562647115E+04   -0.26061E-02   -0.19570E-01  5945   0.215E-01    0.729E-01
RMM:   4    -0.231562403016E+04    0.24410E-02   -0.18642E-02  5598   0.515E-02    0.340E-01
RMM:   5    -0.231562337767E+04    0.65250E-03   -0.29574E-03  5252   0.243E-02    0.276E-01
RMM:   6    -0.231562264256E+04    0.73510E-03   -0.14249E-03  4895   0.215E-02    0.117E-01
RMM:   7    -0.231562256640E+04    0.76161E-04   -0.60916E-04  4570   0.170E-02    0.301E-02
RMM:   8    -0.231562257051E+04   -0.41110E-05   -0.67191E-05  3155   0.637E-03
  23 F= -.23364756E+04 E0= -.23364756E+04  d E =-.417010E-01  mag=     6.0000
       N       E                     dE             d eps       ncg     rms          rms(c)
DAV:   1    -0.231537148488E+04    0.25108E+00   -0.12075E+01  4432   0.282E+00    0.134E+00
RMM:   2    -0.231564665775E+04   -0.27517E+00   -0.26528E+00  6227   0.719E-01    0.171E+00
RMM:   3    -0.231565016614E+04   -0.35084E-02   -0.29477E-01  5938   0.262E-01    0.872E-01
RMM:   4    -0.231564671454E+04    0.34516E-02   -0.27360E-02  5669   0.624E-02    0.414E-01
RMM:   5    -0.231564579578E+04    0.91876E-03   -0.43616E-03  5388   0.292E-02    0.339E-01
RMM:   6    -0.231564468091E+04    0.11149E-02   -0.21102E-03  4993   0.259E-02    0.144E-01
RMM:   7    -0.231564455418E+04    0.12673E-03   -0.90635E-04  4797   0.203E-02    0.381E-02
RMM:   8    -0.231564456176E+04   -0.75752E-05   -0.10030E-04  3397   0.777E-03    0.232E-02
RMM:   9    -0.231564456547E+04   -0.37135E-05   -0.28724E-05  2963   0.535E-03
  24 F= -.23364941E+04 E0= -.23364941E+04  d E =-.602576E-01  mag=     6.0000
       N       E                     dE             d eps       ncg     rms          rms(c)
DAV:   1    -0.231555272641E+04    0.91835E-01   -0.58809E+00  4448   0.192E+00    0.928E-01
RMM:   2    -0.231568562885E+04   -0.13290E+00   -0.12714E+00  6199   0.511E-01    0.124E+00
RMM:   3    -0.231568388021E+04    0.17486E-02   -0.13260E-01  5944   0.182E-01    0.538E-01
RMM:   4    -0.231568302497E+04    0.85524E-03   -0.13339E-02  5513   0.433E-02    0.272E-01
RMM:   5    -0.231568271720E+04    0.30778E-03   -0.19914E-03  5086   0.216E-02    0.249E-01
RMM:   6    -0.231568210397E+04    0.61323E-03   -0.11401E-03  5049   0.188E-02    0.107E-01
RMM:   7    -0.231568202406E+04    0.79906E-04   -0.53765E-04  4580   0.152E-02    0.302E-02
RMM:   8    -0.231568202400E+04    0.57567E-07   -0.50589E-05  3032   0.598E-03
  25 F= -.23365288E+04 E0= -.23365288E+04  d E =-.346596E-01  mag=     6.0000
       N       E                     dE             d eps       ncg     rms          rms(c)
DAV:   1    -0.231553443057E+04    0.14759E+00   -0.73189E+00  4448   0.217E+00    0.104E+00
RMM:   2    -0.231570330125E+04   -0.16887E+00   -0.16137E+00  6204   0.584E-01    0.140E+00
RMM:   3    -0.231570048591E+04    0.28153E-02   -0.16819E-01  5949   0.199E-01    0.588E-01
RMM:   4    -0.231569941766E+04    0.10682E-02   -0.16579E-02  5550   0.483E-02    0.288E-01
RMM:   5    -0.231569918838E+04    0.22927E-03   -0.23797E-03  5281   0.237E-02    0.296E-01
RMM:   6    -0.231569834867E+04    0.83971E-03   -0.15126E-03  5209   0.210E-02    0.124E-01
RMM:   7    -0.231569822326E+04    0.12542E-03   -0.68163E-04  4810   0.165E-02    0.367E-02
[...]
       N       E                     dE             d eps       ncg     rms          rms(c)
DAV:   1    -0.231627656570E+04    0.14724E-01   -0.90309E-01  4496   0.932E-01    0.365E-01
RMM:   2    -0.231629406793E+04   -0.17502E-01   -0.16824E-01  6061   0.217E-01    0.464E-01
RMM:   3    -0.231629329064E+04    0.77729E-03   -0.15270E-02  5709   0.754E-02    0.188E-01
RMM:   4    -0.231629304663E+04    0.24401E-03   -0.17170E-03  4696   0.178E-02    0.818E-02
RMM:   5    -0.231629300676E+04    0.39870E-04   -0.24053E-04  3820   0.108E-02    0.901E-02
RMM:   6    -0.231629292495E+04    0.81815E-04   -0.19241E-04  4045   0.931E-03    0.503E-02
RMM:   7    -0.231629290775E+04    0.17202E-04   -0.87839E-05  3108   0.784E-03    0.137E-02
RMM:   8    -0.231629290709E+04    0.65326E-06   -0.10983E-05  2873   0.448E-03
 124 F= -.23371138E+04 E0= -.23371138E+04  d E =-.167259E-02  mag=     6.0000
       N       E                     dE             d eps       ncg     rms          rms(c)
DAV:   1    -0.231629234642E+04    0.56132E-03   -0.30690E-02  4976   0.172E-01    0.674E-02
RMM:   2    -0.231629295052E+04   -0.60410E-03   -0.57824E-03  6075   0.407E-02    0.869E-02
RMM:   3    -0.231629292079E+04    0.29731E-04   -0.51807E-04  3100   0.144E-02    0.341E-02
RMM:   4    -0.231629291346E+04    0.73277E-05   -0.58795E-05  2943   0.423E-03
 125 F= -.23371138E+04 E0= -.23371138E+04  d E =-.168843E-02  mag=     6.0000
       N       E                     dE             d eps       ncg     rms          rms(c)
DAV:   1    -0.231628000729E+04    0.12913E-01   -0.76061E-01  4464   0.837E-01    0.312E-01
RMM:   2    -0.231629534114E+04   -0.15334E-01   -0.14693E-01  6042   0.196E-01    0.423E-01
RMM:   3    -0.231629473784E+04    0.60330E-03   -0.13182E-02  5611   0.674E-02    0.157E-01
RMM:   4    -0.231629460168E+04    0.13616E-03   -0.14656E-03  4410   0.154E-02    0.835E-02
RMM:   5    -0.231629457478E+04    0.26894E-04   -0.20440E-04  3218   0.916E-03    0.906E-02
RMM:   6    -0.231629448918E+04    0.85597E-04   -0.18908E-04  3982   0.929E-03    0.461E-02
RMM:   7    -0.231629447700E+04    0.12188E-04   -0.80703E-05  3007   0.733E-03    0.149E-02
RMM:   8    -0.231629447547E+04    0.15261E-05   -0.94299E-06  2860   0.399E-03
 126 F= -.23371154E+04 E0= -.23371154E+04  d E =-.157230E-02  mag=     6.0000
       N       E                     dE             d eps       ncg     rms          rms(c)
DAV:   1    -0.231628056071E+04    0.13916E-01   -0.72996E-01  4464   0.819E-01    0.311E-01
RMM:   2    -0.231629545003E+04   -0.14889E-01   -0.14197E-01  6009   0.193E-01    0.430E-01
RMM:   3    -0.231629469363E+04    0.75640E-03   -0.12615E-02  5565   0.621E-02    0.151E-01
RMM:   4    -0.231629457343E+04    0.12020E-03   -0.14192E-03  4340   0.149E-02    0.797E-02
RMM:   5    -0.231629454625E+04    0.27185E-04   -0.18657E-04  3171   0.873E-03    0.854E-02
RMM:   6    -0.231629447169E+04    0.74556E-04   -0.16543E-04  3809   0.875E-03    0.474E-02
RMM:   7    -0.231629445745E+04    0.14241E-04   -0.84220E-05  3016   0.736E-03    0.153E-02
RMM:   8    -0.231629445543E+04    0.20214E-05   -0.94558E-06  2859   0.412E-03
 127 F= -.23371154E+04 E0= -.23371154E+04  d E =-.156670E-02  mag=     6.0000
       N       E                     dE             d eps       ncg     rms          rms(c)
DAV:   1    -0.231629171752E+04    0.27399E-02   -0.15516E-01  4480   0.377E-01    0.141E-01
RMM:   2    -0.231629483195E+04   -0.31144E-02   -0.29863E-02  6097   0.889E-02    0.191E-01
RMM:   3    -0.231629471166E+04    0.12029E-03   -0.26809E-03  4240   0.304E-02    0.706E-02
RMM:   4    -0.231629468122E+04    0.30447E-04   -0.28812E-04  3064   0.764E-03    0.353E-02
RMM:   5    -0.231629467497E+04    0.62501E-05   -0.39806E-05  2930   0.470E-03
 128 F= -.23371156E+04 E0= -.23371156E+04  d E =-.177905E-02  mag=     6.0000
       N       E                     dE             d eps       ncg     rms          rms(c)
DAV:   1    -0.231628678836E+04    0.78929E-02   -0.53770E-01  4464   0.717E-01    0.279E-01
RMM:   2    -0.231629690269E+04   -0.10114E-01   -0.95569E-02  5938   0.164E-01    0.382E-01
RMM:   3    -0.231629620593E+04    0.69676E-03   -0.86573E-03  5485   0.566E-02    0.136E-01
RMM:   4    -0.231629608407E+04    0.12186E-03   -0.98820E-04  4137   0.131E-02    0.680E-02
RMM:   5    -0.231629606290E+04    0.21162E-04   -0.14675E-04  3077   0.794E-03    0.723E-02
RMM:   6    -0.231629600459E+04    0.58312E-04   -0.11981E-04  3682   0.778E-03    0.357E-02
RMM:   7    -0.231629599632E+04    0.82713E-05   -0.55185E-05  2966   0.668E-03
 129 F= -.23371170E+04 E0= -.23371170E+04  d E =-.144722E-02  mag=     6.0000
       N       E                     dE             d eps       ncg     rms          rms(c)
DAV:   1    -0.231628956291E+04    0.64417E-02   -0.37872E-01  4464   0.602E-01    0.229E-01
RMM:   2    -0.231629652742E+04   -0.69645E-02   -0.67144E-02  6008   0.138E-01    0.289E-01
RMM:   3    -0.231629625643E+04    0.27098E-03   -0.61054E-03  5317   0.503E-02    0.118E-01
RMM:   4    -0.231629615910E+04    0.97330E-04   -0.67748E-04  3529   0.113E-02    0.569E-02
RMM:   5    -0.231629614796E+04    0.11143E-04   -0.10902E-04  3020   0.714E-03    0.622E-02
RMM:   6    -0.231629610693E+04    0.41031E-04   -0.89063E-05  3210   0.709E-03    0.302E-02
RMM:   7    -0.231629610238E+04    0.45526E-05   -0.36147E-05  2931   0.588E-03
 130 F= -.23371173E+04 E0= -.23371173E+04  d E =-.166177E-02  mag=     6.0000
       N       E                     dE             d eps       ncg     rms          rms(c)
DAV:   1    -0.231628728088E+04    0.88260E-02   -0.60127E-01  4464   0.740E-01    0.265E-01
RMM:   2    -0.231629776274E+04   -0.10482E-01   -0.10179E-01  6046   0.166E-01    0.341E-01
RMM:   3    -0.231629747332E+04    0.28942E-03   -0.95670E-03  5436   0.605E-02    0.137E-01
RMM:   4    -0.231629736185E+04    0.11147E-03   -0.10421E-03  3901   0.134E-02    0.709E-02
RMM:   5    -0.231629734166E+04    0.20183E-04   -0.16467E-04  3146   0.833E-03    0.780E-02
RMM:   6    -0.231629728046E+04    0.61207E-04   -0.14699E-04  3547   0.850E-03    0.393E-02
RMM:   7    -0.231629727208E+04    0.83731E-05   -0.54229E-05  2962   0.650E-03
 131 F= -.23371187E+04 E0= -.23371187E+04  d E =-.139836E-02  mag=     6.0000
       N       E                     dE             d eps       ncg     rms          rms(c)
DAV:   1    -0.231628985439E+04    0.74261E-02   -0.44874E-01  4464   0.640E-01    0.230E-01
RMM:   2    -0.231629767796E+04   -0.78236E-02   -0.76138E-02  6066   0.144E-01    0.293E-01
RMM:   3    -0.231629747931E+04    0.19865E-03   -0.71620E-03  5302   0.527E-02    0.119E-01
RMM:   4    -0.231629739446E+04    0.84857E-04   -0.77662E-04  3498   0.117E-02    0.617E-02
RMM:   5    -0.231629737946E+04    0.14992E-04   -0.12309E-04  3067   0.738E-03    0.676E-02
RMM:   6    -0.231629733292E+04    0.46543E-04   -0.10998E-04  3268   0.767E-03    0.337E-02
RMM:   7    -0.231629732723E+04    0.56926E-05   -0.42352E-05  2945   0.602E-03
 132 F= -.23371189E+04 E0= -.23371189E+04  d E =-.165531E-02  mag=     6.0000
       N       E                     dE             d eps       ncg     rms          rms(c)
DAV:   1    -0.231628681446E+04    0.10518E-01   -0.76527E-01  4448   0.838E-01    0.299E-01
RMM:   2    -0.231629911872E+04   -0.12304E-01   -0.12161E-01  5991   0.182E-01    0.342E-01
RMM:   3    -0.231629912425E+04   -0.55359E-05   -0.12004E-02  5507   0.699E-02    0.165E-01
RMM:   4    -0.231629892058E+04    0.20367E-03   -0.11870E-03  4393   0.150E-02    0.803E-02
RMM:   5    -0.231629889267E+04    0.27909E-04   -0.22415E-04  3427   0.974E-03    0.866E-02
RMM:   6    -0.231629881646E+04    0.76213E-04   -0.19223E-04  3901   0.936E-03    0.394E-02
RMM:   7    -0.231629880906E+04    0.74035E-05   -0.50109E-05  2981   0.659E-03
 133 F= -.23371205E+04 E0= -.23371205E+04  d E =-.161476E-02  mag=     6.0000
       N       E                     dE             d eps       ncg     rms          rms(c)
DAV:   1    -0.231629655813E+04    0.22583E-02   -0.14639E-01  4584   0.366E-01    0.132E-01
RMM:   2    -0.231629891148E+04   -0.23533E-02   -0.23348E-02  6038   0.805E-02    0.148E-01
RMM:   3    -0.231629892431E+04   -0.12827E-04   -0.22881E-03  4213   0.302E-02    0.746E-02
RMM:   4    -0.231629888396E+04    0.40348E-04   -0.22908E-04  3035   0.740E-03    0.360E-02
RMM:   5    -0.231629887953E+04    0.44304E-05   -0.44785E-05  2945   0.473E-03
 134 F= -.23371207E+04 E0= -.23371207E+04  d E =-.174556E-02  mag=     6.0000
       N       E                     dE             d eps       ncg     rms          rms(c)
DAV:   1    -0.231629001270E+04    0.88713E-02   -0.65498E-01  4448   0.765E-01    0.268E-01
RMM:   2    -0.231630025858E+04   -0.10246E-01   -0.10346E-01  5945   0.164E-01    0.269E-01
RMM:   3    -0.231630062788E+04   -0.36929E-03   -0.10544E-02  5403   0.653E-02    0.153E-01
RMM:   4    -0.231630043727E+04    0.19061E-03   -0.10039E-03  4398   0.144E-02    0.775E-02
RMM:   5    -0.231630037703E+04    0.60239E-04   -0.23035E-04  3960   0.107E-02    0.605E-02
RMM:   6    -0.231630036237E+04    0.14661E-04   -0.15168E-04  3307   0.848E-03    0.520E-02
RMM:   7    -0.231630034024E+04    0.22130E-04   -0.36013E-05  2940   0.603E-03    0.949E-03
RMM:   8    -0.231630033954E+04    0.69346E-06   -0.86718E-06  2866   0.341E-03
 135 F= -.23371222E+04 E0= -.23371222E+04  d E =-.150963E-02  mag=     6.0000
       N       E                     dE             d eps       ncg     rms          rms(c)
DAV:   1    -0.231629998101E+04    0.35923E-03   -0.23343E-02  4872   0.144E-01    0.511E-02
RMM:   2    -0.231630035194E+04   -0.37093E-03   -0.37225E-03  5896   0.321E-02    0.526E-02
RMM:   3    -0.231630036286E+04   -0.10921E-04   -0.37049E-04  2981   0.122E-02    0.291E-02
RMM:   4    -0.231630035643E+04    0.64369E-05   -0.36986E-05  2931   0.355E-03
 136 F= -.23371222E+04 E0= -.23371222E+04  d E =-.153647E-02  mag=     6.0000
       N       E                     dE             d eps       ncg     rms          rms(c)
DAV:   1    -0.231629510692E+04    0.52559E-02   -0.42587E-01  4456   0.643E-01    0.233E-01
RMM:   2    -0.231630119534E+04   -0.60884E-02   -0.62253E-02  5797   0.132E-01    0.193E-01
RMM:   3    -0.231630156755E+04   -0.37221E-03   -0.62628E-03  5196   0.573E-02    0.150E-01
RMM:   4    -0.231630136783E+04    0.19972E-03   -0.63555E-04  4054   0.127E-02    0.643E-02
RMM:   5    -0.231630134253E+04    0.25296E-04   -0.15264E-04  3334   0.880E-03    0.580E-02
RMM:   6    -0.231630131298E+04    0.29555E-04   -0.11440E-04  3360   0.788E-03    0.303E-02
RMM:   7    -0.231630130680E+04    0.61779E-05   -0.22569E-05  2909   0.565E-03
 137 F= -.23371232E+04 E0= -.23371232E+04  d E =-.100379E-02  mag=     6.0000
       N       E                     dE             d eps       ncg     rms          rms(c)
DAV:   1    -0.231630059198E+04    0.72100E-03   -0.46179E-02  4656   0.212E-01    0.780E-02
RMM:   2    -0.231630126570E+04   -0.67372E-03   -0.68852E-03  5973   0.451E-02    0.659E-02
RMM:   3    -0.231630130347E+04   -0.37776E-04   -0.67941E-04  3416   0.184E-02    0.495E-02
RMM:   4    -0.231630128208E+04    0.21391E-04   -0.69778E-05  2940   0.516E-03    0.208E-02
RMM:   5    -0.231630128019E+04    0.18894E-05   -0.17515E-05  2881   0.330E-03
 138 F= -.23371232E+04 E0= -.23371232E+04  d E =-.995282E-03  mag=     6.0000
       N       E                     dE             d eps       ncg     rms          rms(c)
DAV:   1    -0.231629729194E+04    0.39901E-02   -0.27945E-01  4456   0.487E-01    0.169E-01
RMM:   2    -0.231630181572E+04   -0.45238E-02   -0.46347E-02  5872   0.104E-01    0.146E-01
RMM:   3    -0.231630212270E+04   -0.30698E-03   -0.46310E-03  4668   0.452E-02    0.101E-01
RMM:   4    -0.231630204792E+04    0.74778E-04   -0.44515E-04  3184   0.961E-03    0.517E-02
RMM:   5    -0.231630202227E+04    0.25650E-04   -0.84496E-05  3016   0.660E-03    0.363E-02
RMM:   6    -0.231630201946E+04    0.28074E-05   -0.65563E-05  3024   0.608E-03
 139 F= -.23371240E+04 E0= -.23371240E+04  d E =-.847329E-03  mag=     6.0000
       N       E                     dE             d eps       ncg     rms          rms(c)
DAV:   1    -0.231629737774E+04    0.46445E-02   -0.27746E-01  4456   0.486E-01    0.170E-01
RMM:   2    -0.231630185315E+04   -0.44754E-02   -0.46204E-02  5983   0.104E-01    0.138E-01
RMM:   3    -0.231630219658E+04   -0.34343E-03   -0.46539E-03  4742   0.420E-02    0.103E-01
RMM:   4    -0.231630212450E+04    0.72086E-04   -0.45127E-04  3156   0.941E-03    0.548E-02
RMM:   5    -0.231630210610E+04    0.18393E-04   -0.74900E-05  2956   0.584E-03    0.443E-02
RMM:   6    -0.231630208948E+04    0.16618E-04   -0.71390E-05  3024   0.603E-03    0.262E-02
RMM:   7    -0.231630208475E+04    0.47337E-05   -0.20585E-05  2944   0.475E-03
 140 F= -.23371242E+04 E0= -.23371242E+04  d E =-.102241E-02  mag=     6.0000
       N       E                     dE             d eps       ncg     rms          rms(c)
DAV:   1    -0.231629659381E+04    0.54957E-02   -0.40282E-01  4464   0.603E-01    0.217E-01
RMM:   2    -0.231630272856E+04   -0.61347E-02   -0.62862E-02  5860   0.127E-01    0.176E-01
RMM:   3    -0.231630315443E+04   -0.42587E-03   -0.61572E-03  5222   0.562E-02    0.141E-01
RMM:   4    -0.231630298845E+04    0.16599E-03   -0.62917E-04  3725   0.121E-02    0.589E-02
RMM:   5    -0.231630295584E+04    0.32605E-04   -0.12163E-04  3277   0.799E-03    0.449E-02
RMM:   6    -0.231630294581E+04    0.10035E-04   -0.95857E-05  3150   0.742E-03    0.356E-02
RMM:   7    -0.231630293425E+04    0.11561E-04   -0.26629E-05  2941   0.570E-03    0.896E-03
RMM:   8    -0.231630293348E+04    0.76162E-06   -0.60408E-06  2852   0.345E-03
 141 F= -.23371253E+04 E0= -.23371253E+04  d E =-.111474E-02  mag=     6.0000
       N       E                     dE             d eps       ncg     rms          rms(c)
DAV:   1    -0.231630200852E+04    0.92573E-03   -0.56690E-02  4704   0.227E-01    0.810E-02
RMM:   2    -0.231630287398E+04   -0.86546E-03   -0.88693E-03  5942   0.480E-02    0.636E-02
RMM:   3    -0.231630293516E+04   -0.61183E-04   -0.85267E-04  3305   0.199E-02    0.519E-02
RMM:   4    -0.231630291301E+04    0.22149E-04   -0.87690E-05  2974   0.532E-03    0.225E-02
RMM:   5    -0.231630290762E+04    0.53931E-05   -0.18221E-05  2883   0.341E-03
 142 F= -.23371254E+04 E0= -.23371254E+04  d E =-.118909E-02  mag=     6.0000
       N       E                     dE             d eps       ncg     rms          rms(c)
DAV:   1    -0.231629900955E+04    0.39035E-02   -0.25430E-01  4464   0.460E-01    0.168E-01
RMM:   2    -0.231630341776E+04   -0.44082E-02   -0.45225E-02  5992   0.104E-01    0.140E-01
RMM:   3    -0.231630373039E+04   -0.31263E-03   -0.44518E-03  4785   0.421E-02    0.110E-01
RMM:   4    -0.231630364011E+04    0.90283E-04   -0.43923E-04  3184   0.975E-03    0.488E-02
RMM:   5    -0.231630360858E+04    0.31532E-04   -0.78674E-05  3148   0.674E-03    0.259E-02
RMM:   6    -0.231630361159E+04   -0.30108E-05   -0.53052E-05  3012   0.623E-03
 143 F= -.23371264E+04 E0= -.23371264E+04  d E =-.101483E-02  mag=     6.0000
       N       E                     dE             d eps       ncg     rms          rms(c)
DAV:   1    -0.231630178026E+04    0.18283E-02   -0.96763E-02  4512   0.284E-01    0.104E-01
RMM:   2    -0.231630344002E+04   -0.16598E-02   -0.17269E-02  6156   0.647E-02    0.755E-02
RMM:   3    -0.231630358986E+04   -0.14984E-03   -0.17945E-03  3576   0.262E-02    0.696E-02
RMM:   4    -0.231630355702E+04    0.32838E-04   -0.17361E-04  3021   0.673E-03    0.318E-02
RMM:   5    -0.231630354684E+04    0.10188E-04   -0.27591E-05  2960   0.401E-03    0.215E-02
RMM:   6    -0.231630354576E+04    0.10767E-05   -0.26221E-05  2902   0.432E-03
 144 F= -.23371265E+04 E0= -.23371265E+04  d E =-.114146E-02  mag=     6.0000
       N       E                     dE             d eps       ncg     rms          rms(c)
DAV:   1    -0.231629909507E+04    0.44518E-02   -0.27294E-01  4464   0.478E-01    0.176E-01
RMM:   2    -0.231630384949E+04   -0.47544E-02   -0.49245E-02  5950   0.106E-01    0.136E-01
RMM:   3    -0.231630424558E+04   -0.39609E-03   -0.50022E-03  4771   0.474E-02    0.117E-01
RMM:   4    -0.231630414801E+04    0.97567E-04   -0.48247E-04  3260   0.101E-02    0.501E-02
RMM:   5    -0.231630411889E+04    0.29121E-04   -0.77193E-05  3074   0.642E-03    0.316E-02
RMM:   6    -0.231630411914E+04   -0.24782E-06   -0.65329E-05  2985   0.660E-03
 145 F= -.23371274E+04 E0= -.23371274E+04  d E =-.874795E-03  mag=     6.0000
       N       E                     dE             d eps       ncg     rms          rms(c)
DAV:   1    -0.231630179550E+04    0.23234E-02   -0.11843E-01  4496   0.315E-01    0.117E-01
RMM:   2    -0.231630386481E+04   -0.20693E-02   -0.21605E-02  6160   0.711E-02    0.819E-02
RMM:   3    -0.231630404983E+04   -0.18502E-03   -0.21840E-03  3803   0.285E-02    0.749E-02
RMM:   4    -0.231630401247E+04    0.37358E-04   -0.21067E-04  3036   0.722E-03    0.348E-02
RMM:   5    -0.231630399964E+04    0.12837E-04   -0.32537E-05  2969   0.432E-03    0.220E-02
RMM:   6    -0.231630399911E+04    0.52777E-06   -0.29837E-05  2915   0.459E-03
 146 F= -.23371275E+04 E0= -.23371275E+04  d E =-.954050E-03  mag=     6.0000
       N       E                     dE             d eps       ncg     rms          rms(c)
DAV:   1    -0.231629866595E+04    0.53337E-02   -0.32214E-01  4464   0.521E-01    0.184E-01
RMM:   2    -0.231630415662E+04   -0.54907E-02   -0.57205E-02  5914   0.111E-01    0.133E-01
RMM:   3    -0.231630462749E+04   -0.47087E-03   -0.56089E-03  4905   0.514E-02    0.113E-01
RMM:   4    -0.231630454615E+04    0.81334E-04   -0.55267E-04  3277   0.105E-02    0.568E-02
RMM:   5    -0.231630450909E+04    0.37065E-04   -0.88612E-05  3055   0.687E-03    0.338E-02
RMM:   6    -0.231630450750E+04    0.15830E-05   -0.77412E-05  3080   0.696E-03
 147 F= -.23371283E+04 E0= -.23371283E+04  d E =-.786442E-03  mag=     6.0000
       N       E                     dE             d eps       ncg     rms          rms(c)
DAV:   1    -0.231630284778E+04    0.16613E-02   -0.84327E-02  4576   0.267E-01    0.949E-02
RMM:   2    -0.231630428392E+04   -0.14361E-02   -0.15141E-02  6173   0.588E-02    0.593E-02
RMM:   3    -0.231630441596E+04   -0.13204E-03   -0.15151E-03  3406   0.247E-02    0.506E-02
RMM:   4    -0.231630440479E+04    0.11162E-04   -0.14845E-04  3019   0.611E-03    0.315E-02
RMM:   5    -0.231630439442E+04    0.10372E-04   -0.22524E-05  2920   0.368E-03    0.182E-02
RMM:   6    -0.231630439334E+04    0.10857E-05   -0.20912E-05  2902   0.380E-03
 148 F= -.23371283E+04 E0= -.23371283E+04  d E =-.815332E-03  mag=     6.0000
       N       E                     dE             d eps       ncg     rms          rms(c)
DAV:   1    -0.231629910580E+04    0.52886E-02   -0.31722E-01  4464   0.507E-01    0.180E-01
RMM:   2    -0.231630450779E+04   -0.54020E-02   -0.56909E-02  5826   0.108E-01    0.109E-01
RMM:   3    -0.231630498322E+04   -0.47543E-03   -0.55933E-03  4696   0.538E-02    0.834E-02
RMM:   4    -0.231630496971E+04    0.13509E-04   -0.55050E-04  3355   0.101E-02    0.638E-02
RMM:   5    -0.231630492567E+04    0.44039E-04   -0.99233E-05  3033   0.699E-03    0.336E-02
RMM:   6    -0.231630491699E+04    0.86836E-05   -0.68350E-05  3194   0.656E-03
 149 F= -.23371291E+04 E0= -.23371291E+04  d E =-.762423E-03  mag=     6.0000
       N       E                     dE             d eps       ncg     rms          rms(c)
DAV:   1    -0.231630428653E+04    0.63914E-03   -0.30480E-02  4856   0.157E-01    0.579E-02
RMM:   2    -0.231630481326E+04   -0.52672E-03   -0.56054E-03  5984   0.358E-02    0.366E-02
RMM:   3    -0.231630486902E+04   -0.55762E-04   -0.58908E-04  3000   0.161E-02    0.391E-02
RMM:   4    -0.231630485973E+04    0.92879E-05   -0.57126E-05  2962   0.424E-03
 150 F= -.23371291E+04 E0= -.23371291E+04  d E =-.779995E-03  mag=     6.0000
