       N       E                     dE             d eps       ncg     rms          rms(c)
DAV:   1     0.125279112000E+05    0.12528E+05   -0.81938E+05  4384   0.143E+03
DAV:   2    -0.108384107458E+04   -0.13612E+05   -0.13068E+05  5352   0.330E+02
DAV:   3    -0.246886382315E+04   -0.13850E+04   -0.13740E+04  5248   0.109E+02
DAV:   4    -0.250668398349E+04   -0.37820E+02   -0.37632E+02  6288   0.251E+01
DAV:   5    -0.250745523896E+04   -0.77126E+00   -0.77017E+00  5456   0.291E+00    0.170E+02
RMM:   6    -0.146869540737E+04    0.10388E+04   -0.19457E+03  4340   0.388E+01    0.728E+01
RMM:   7    -0.165049315065E+04   -0.18180E+03   -0.27079E+02  5022   0.137E+01    0.528E+01
RMM:   8    -0.169491295774E+04   -0.44420E+02   -0.71083E+01  4962   0.815E+00    0.390E+01
RMM:   9    -0.180032605929E+04   -0.10541E+03   -0.55792E+01  4498   0.745E+00    0.272E+01
RMM:  10    -0.192896862782E+04   -0.12864E+03   -0.51636E+01  4737   0.700E+00    0.178E+01
RMM:  11    -0.206645174067E+04   -0.13748E+03   -0.75046E+01  4457   0.660E+00    0.134E+01
RMM:  12    -0.219429016917E+04   -0.12784E+03   -0.98440E+01  4495   0.737E+00    0.849E+00
RMM:  13    -0.226633834719E+04   -0.72048E+02   -0.64040E+01  4606   0.569E+00    0.523E+00
RMM:  14    -0.228987354873E+04   -0.23535E+02   -0.23551E+01  4584   0.372E+00    0.310E+00
RMM:  15    -0.229541358623E+04   -0.55400E+01   -0.61453E+00  4790   0.200E+00    0.209E+00
RMM:  16    -0.229744189327E+04   -0.20283E+01   -0.11121E+00  4823   0.718E-01    0.251E+00
RMM:  17    -0.229750217593E+04   -0.60283E-01   -0.82797E-02  5286   0.306E-01    0.222E+00
RMM:  18    -0.229808167293E+04   -0.57950E+00   -0.17236E-01  4406   0.289E-01    0.112E+00
RMM:  19    -0.229839807497E+04   -0.31640E+00   -0.10927E-01  4407   0.296E-01    0.821E-01
RMM:  20    -0.229852549834E+04   -0.12742E+00   -0.25987E-02  4703   0.151E-01    0.790E-01
RMM:  21    -0.229852290288E+04    0.25955E-02   -0.27534E-03  5450   0.492E-02    0.768E-01
RMM:  22    -0.229854276650E+04   -0.19864E-01   -0.10459E-02  4369   0.792E-02    0.528E-01
RMM:  23    -0.229857360394E+04   -0.30837E-01   -0.16834E-02  4427   0.105E-01    0.441E-01
RMM:  24    -0.229858065410E+04   -0.70502E-02   -0.62341E-03  4420   0.681E-02    0.368E-01
RMM:  25    -0.229858449546E+04   -0.38414E-02   -0.32500E-03  4995   0.399E-02    0.334E-01
RMM:  26    -0.229859122294E+04   -0.67275E-02   -0.47569E-03  4408   0.405E-02    0.324E-01
RMM:  27    -0.229859293895E+04   -0.17160E-02   -0.11249E-03  4329   0.231E-02    0.297E-01
RMM:  28    -0.229860581030E+04   -0.12871E-01   -0.57196E-03  4343   0.468E-02    0.244E-01
RMM:  29    -0.229861195578E+04   -0.61455E-02   -0.67449E-03  4558   0.545E-02    0.471E-01
RMM:  30    -0.229861323296E+04   -0.12772E-02   -0.28810E-03  4479   0.359E-02    0.381E-01
RMM:  31    -0.229862163014E+04   -0.83972E-02   -0.37181E-03  4335   0.372E-02    0.360E-01
RMM:  32    -0.229862251339E+04   -0.88326E-03   -0.25922E-03  4295   0.317E-02    0.188E-01
RMM:  33    -0.229862513895E+04   -0.26256E-02   -0.14735E-03  4433   0.247E-02    0.612E-02
RMM:  34    -0.229862711543E+04   -0.19765E-02   -0.66156E-04  4031   0.197E-02    0.249E-02
RMM:  35    -0.229862847143E+04   -0.13560E-02   -0.57024E-04  4011   0.155E-02    0.327E-02
RMM:  36    -0.229862880631E+04   -0.33487E-03   -0.20707E-04  3683   0.119E-02    0.212E-02
RMM:  37    -0.229862891988E+04   -0.11357E-03   -0.47589E-05  3244   0.511E-03    0.702E-03
RMM:  38    -0.229862898317E+04   -0.63294E-04   -0.19640E-05  2874   0.470E-03    0.112E-02
RMM:  39    -0.229862901448E+04   -0.31305E-04   -0.10562E-05  2820   0.284E-03    0.724E-03
RMM:  40    -0.229862903042E+04   -0.15942E-04   -0.13562E-05  2557   0.275E-03    0.530E-03
RMM:  41    -0.229862903748E+04   -0.70632E-05   -0.34428E-06  2471   0.198E-03
   1 F= -.23185398E+04 E0= -.23185397E+04  d E =-.231854E+04  mag=     1.0001
       N       E                     dE             d eps       ncg     rms          rms(c)
DAV:   1    -0.229829206207E+04    0.33697E+00   -0.31052E+01  4624   0.434E+00    0.204E+00
RMM:   2    -0.229884464903E+04   -0.55259E+00   -0.56845E+00  6353   0.119E+00    0.201E+00
RMM:   3    -0.229885485760E+04   -0.10209E-01   -0.37334E-01  5558   0.365E-01    0.131E+00
RMM:   4    -0.229885916831E+04   -0.43107E-02   -0.73665E-02  5436   0.102E-01    0.113E+00
RMM:   5    -0.229886235696E+04   -0.31886E-02   -0.13636E-02  5163   0.609E-02    0.106E+00
RMM:   6    -0.229886324694E+04   -0.88998E-03   -0.50399E-03  4806   0.277E-02    0.101E+00
RMM:   7    -0.229886400955E+04   -0.76261E-03   -0.13216E-03  4097   0.186E-02    0.997E-01
RMM:   8    -0.229886211192E+04    0.18976E-02   -0.35589E-03  4133   0.259E-02    0.866E-01
RMM:   9    -0.229885410752E+04    0.80044E-02   -0.34647E-02  4458   0.806E-02    0.620E-01
RMM:  10    -0.229884650773E+04    0.75998E-02   -0.21830E-02  4712   0.725E-02    0.755E-01
RMM:  11    -0.229883369772E+04    0.12810E-01   -0.11727E-02  4622   0.659E-02    0.861E-01
RMM:  12    -0.229885072272E+04   -0.17025E-01   -0.22189E-02  4326   0.832E-02    0.715E-01
RMM:  13    -0.229885129660E+04   -0.57388E-03   -0.20483E-02  4566   0.668E-02    0.621E-01
RMM:  14    -0.229885556282E+04   -0.42662E-02   -0.34037E-02  4620   0.841E-02    0.676E-01
RMM:  15    -0.229885370881E+04    0.18540E-02   -0.44765E-03  4516   0.420E-02    0.642E-01
RMM:  16    -0.229885279736E+04    0.91145E-03   -0.16207E-03  4073   0.199E-02    0.720E-01
RMM:  17    -0.229885974708E+04   -0.69497E-02   -0.30412E-02  4347   0.759E-02    0.687E-01
RMM:  18    -0.229886233100E+04   -0.25839E-02   -0.74443E-03  4296   0.496E-02    0.383E-01
RMM:  19    -0.229886494429E+04   -0.26133E-02   -0.49680E-02  4445   0.953E-02    0.104E+00
RMM:  20    -0.229886564820E+04   -0.70391E-03   -0.42244E-03  4238   0.494E-02    0.997E-01
RMM:  21    -0.229886371079E+04    0.19374E-02   -0.26774E-03  4401   0.196E-02    0.108E+00
RMM:  22    -0.229882512346E+04    0.38587E-01   -0.29235E-02  4504   0.100E-01    0.132E+00
RMM:  23    -0.229886221945E+04   -0.37096E-01   -0.22467E-02  4421   0.750E-02    0.117E+00
RMM:  24    -0.229886159798E+04    0.62146E-03   -0.56487E-04  3611   0.183E-02    0.118E+00
RMM:  25    -0.229886556908E+04   -0.39711E-02   -0.17261E-03  4008   0.243E-02    0.110E+00
RMM:  26    -0.229886078273E+04    0.47864E-02   -0.28743E-03  4143   0.309E-02    0.127E+00
RMM:  27    -0.229886758311E+04   -0.68004E-02   -0.21663E-02  4420   0.685E-02    0.772E-01
RMM:  28    -0.229887059322E+04   -0.30101E-02   -0.26018E-03  4174   0.382E-02    0.105E+00
RMM:  29    -0.229886982822E+04    0.76501E-03   -0.53732E-03  4395   0.307E-02    0.107E+00
RMM:  30    -0.229886441995E+04    0.54083E-02   -0.10171E-02  4425   0.481E-02    0.111E+00
RMM:  31    -0.229886179383E+04    0.26261E-02   -0.18218E-03  4191   0.246E-02    0.111E+00
RMM:  32    -0.229886067765E+04    0.11162E-02   -0.37822E-04  3473   0.987E-03    0.109E+00
RMM:  33    -0.229885558055E+04    0.50971E-02   -0.96466E-04  3707   0.203E-02    0.107E+00
RMM:  34    -0.229884155912E+04    0.14021E-01   -0.11833E-02  4394   0.626E-02    0.101E+00
RMM:  35    -0.229878548836E+04    0.56071E-01   -0.39219E-02  4497   0.115E-01    0.114E+00
RMM:  36    -0.229877625975E+04    0.92286E-02   -0.31688E-03  4206   0.360E-02    0.116E+00
RMM:  37    -0.229877347984E+04    0.27799E-02   -0.82466E-04  3842   0.137E-02    0.117E+00
RMM:  38    -0.229878304180E+04   -0.95620E-02   -0.64735E-04  3471   0.152E-02    0.113E+00
RMM:  39    -0.229875178704E+04    0.31255E-01   -0.11217E-02  4306   0.591E-02    0.118E+00
RMM:  40    -0.229874614714E+04    0.56399E-02   -0.10297E-03  3635   0.219E-02    0.119E+00
RMM:  41    -0.229874530877E+04    0.83837E-03   -0.23495E-04  3205   0.827E-03    0.119E+00
RMM:  42    -0.229874015977E+04    0.51490E-02   -0.14920E-04  3048   0.816E-03    0.120E+00
RMM:  43    -0.229873503640E+04    0.51234E-02   -0.38855E-04  3427   0.115E-02    0.121E+00
RMM:  44    -0.229875885100E+04   -0.23815E-01   -0.10572E-02  4229   0.551E-02    0.116E+00
RMM:  45    -0.229880863797E+04   -0.49787E-01   -0.59131E-02  4458   0.127E-01    0.103E+00
RMM:  46    -0.229885498795E+04   -0.46350E-01   -0.12468E-01  4583   0.173E-01    0.102E+00
RMM:  47    -0.229886321982E+04   -0.82319E-02   -0.14435E-02  4636   0.759E-02    0.104E+00
RMM:  48    -0.229886402001E+04   -0.80019E-03   -0.23671E-03  4122   0.183E-02    0.102E+00
RMM:  49    -0.229886301047E+04    0.10095E-02   -0.24987E-04  3236   0.111E-02    0.104E+00
RMM:  50    -0.229885425766E+04    0.87528E-02   -0.26074E-03  4061   0.322E-02    0.107E+00
RMM:  51    -0.229884719915E+04    0.70585E-02   -0.45570E-03  4322   0.386E-02    0.104E+00
RMM:  52    -0.229881771864E+04    0.29481E-01   -0.20921E-02  4451   0.833E-02    0.108E+00
RMM:  53    -0.229881991985E+04   -0.22012E-02   -0.12891E-03  3940   0.268E-02    0.109E+00
RMM:  54    -0.229880851367E+04    0.11406E-01   -0.14683E-03  3745   0.194E-02    0.111E+00
RMM:  55    -0.229882577569E+04   -0.17262E-01   -0.34376E-03  4123   0.315E-02    0.106E+00
RMM:  56    -0.229883459581E+04   -0.88201E-02   -0.32639E-03  4221   0.316E-02    0.103E+00
RMM:  57    -0.229882159911E+04    0.12997E-01   -0.15948E-03  3674   0.246E-02    0.106E+00
RMM:  58    -0.229882019790E+04    0.14012E-02   -0.12448E-04  2917   0.788E-03    0.106E+00
RMM:  59    -0.229882086375E+04   -0.66585E-03   -0.43686E-04  3636   0.106E-02    0.106E+00
RMM:  60    -0.229881281059E+04    0.80532E-02   -0.64030E-03  4290   0.437E-02    0.103E+00
RMM:  61    -0.229881284580E+04   -0.35211E-04   -0.36672E-04  3261   0.145E-02    0.103E+00
RMM:  62    -0.229877346802E+04    0.39378E-01   -0.79545E-03  4088   0.467E-02    0.120E+00
RMM:  63    -0.229875873461E+04    0.14733E-01   -0.19144E-03  3590   0.247E-02    0.123E+00
RMM:  64    -0.229875939478E+04   -0.66017E-03   -0.13845E-04  2913   0.691E-03    0.123E+00
RMM:  65    -0.229875523107E+04    0.41637E-02   -0.21056E-04  3121   0.900E-03    0.124E+00
RMM:  66    -0.229875417331E+04    0.10578E-02   -0.28477E-05  2698   0.404E-03    0.125E+00
RMM:  67    -0.229877654438E+04   -0.22371E-01   -0.42216E-03  4269   0.342E-02    0.117E+00
RMM:  68    -0.229879722973E+04   -0.20685E-01   -0.42664E-03  4346   0.360E-02    0.111E+00
RMM:  69    -0.229884789838E+04   -0.50669E-01   -0.45168E-02  4463   0.111E-01    0.996E-01
RMM:  70    -0.229886187660E+04   -0.13978E-01   -0.97844E-03  4276   0.677E-02    0.807E-01
RMM:  71    -0.229886284424E+04   -0.96764E-03   -0.13804E-02  4486   0.507E-02    0.844E-01
RMM:  72    -0.229885484177E+04    0.80025E-02   -0.52108E-02  4566   0.974E-02    0.143E+00
RMM:  73    -0.229885576649E+04   -0.92472E-03   -0.33735E-03  4402   0.381E-02    0.139E+00
RMM:  74    -0.229885577260E+04   -0.61101E-05   -0.86546E-04  3733   0.830E-03    0.140E+00
RMM:  75    -0.229885561722E+04    0.15538E-03   -0.66142E-05  2909   0.767E-03    0.141E+00
RMM:  76    -0.229885474912E+04    0.86810E-03   -0.24478E-04  3376   0.716E-03    0.146E+00
RMM:  77    -0.229886180884E+04   -0.70597E-02   -0.50311E-03  4248   0.358E-02    0.110E+00
RMM:  78    -0.229886530243E+04   -0.34936E-02   -0.97347E-03  4528   0.460E-02    0.792E-01
RMM:  79    -0.229886555794E+04   -0.25551E-03   -0.73327E-03  4764   0.391E-02    0.597E-01
RMM:  80    -0.229886693907E+04   -0.13811E-02   -0.12444E-03  4586   0.163E-02    0.491E-01
RMM:  81    -0.229886723491E+04   -0.29584E-03   -0.11748E-03  4268   0.152E-02    0.400E-01
RMM:  82    -0.229885918128E+04    0.80536E-02   -0.10768E-01  4458   0.141E-01    0.368E-01
RMM:  83    -0.229886018883E+04   -0.10075E-02   -0.70798E-03  4305   0.662E-02    0.261E-01
RMM:  84    -0.229886042909E+04   -0.24026E-03   -0.14249E-03  4069   0.136E-02    0.252E-01
RMM:  85    -0.229886018335E+04    0.24574E-03   -0.17589E-04  3057   0.832E-03    0.220E-01
RMM:  86    -0.229885945129E+04    0.73206E-03   -0.69232E-04  4048   0.115E-02    0.203E-01
RMM:  87    -0.229885762208E+04    0.18292E-02   -0.29922E-03  4256   0.244E-02    0.263E-01
RMM:  88    -0.229885738974E+04    0.23235E-03   -0.11957E-03  3980   0.174E-02    0.205E-01
RMM:  89    -0.229885617182E+04    0.12179E-02   -0.20851E-03  4295   0.203E-02    0.199E-01
RMM:  90    -0.229885552432E+04    0.64750E-03   -0.20652E-03  4200   0.214E-02    0.198E-01
RMM:  91    -0.229885499939E+04    0.52493E-03   -0.14178E-03  4273   0.165E-02    0.199E-01
RMM:  92    -0.229885516257E+04   -0.16317E-03   -0.59289E-04  3755   0.122E-02    0.249E-01
RMM:  93    -0.229885520584E+04   -0.43278E-04   -0.62798E-05  2825   0.533E-03    0.248E-01
RMM:  94    -0.229885533480E+04   -0.12896E-03   -0.59141E-05  2797   0.400E-03    0.281E-01
RMM:  95    -0.229885504980E+04    0.28499E-03   -0.17015E-04  2959   0.643E-03    0.228E-01
RMM:  96    -0.229885492164E+04    0.12817E-03   -0.90878E-05  2836   0.513E-03    0.241E-01
RMM:  97    -0.229885433827E+04    0.58336E-03   -0.86440E-04  3998   0.136E-02    0.262E-01
RMM:  98    -0.229885452062E+04   -0.18235E-03   -0.66937E-05  2804   0.634E-03    0.249E-01
RMM:  99    -0.229885451356E+04    0.70577E-05   -0.91558E-06  2583   0.196E-03
   2 F= -.23187686E+04 E0= -.23187685E+04  d E =-.228780E+00  mag=     1.0000
       N       E                     dE             d eps       ncg     rms          rms(c)
DAV:   1    -0.229885262424E+04    0.18964E-02   -0.27199E-01  4520   0.406E-01    0.315E-01
RMM:   2    -0.229885737314E+04   -0.47489E-02   -0.47435E-02  6265   0.106E-01    0.279E-01
RMM:   3    -0.229885747836E+04   -0.10522E-03   -0.39664E-03  4717   0.384E-02    0.222E-01
RMM:   4    -0.229885706299E+04    0.41537E-03   -0.17789E-03  4649   0.166E-02    0.110E-01
RMM:   5    -0.229885738783E+04   -0.32484E-03   -0.33877E-04  3370   0.101E-02    0.140E-01
RMM:   6    -0.229885746310E+04   -0.75274E-04   -0.16464E-04  2875   0.610E-03    0.129E-01
RMM:   7    -0.229885740845E+04    0.54658E-04   -0.21398E-05  2666   0.346E-03    0.122E-01
RMM:   8    -0.229885731287E+04    0.95580E-04   -0.10902E-04  2935   0.481E-03    0.106E-01
RMM:   9    -0.229885710421E+04    0.20865E-03   -0.45870E-04  3795   0.911E-03    0.838E-02
RMM:  10    -0.229885697503E+04    0.12918E-03   -0.47434E-04  3393   0.973E-03    0.586E-02
RMM:  11    -0.229885689149E+04    0.83539E-04   -0.49380E-04  3718   0.106E-02    0.359E-02
RMM:  12    -0.229885688467E+04    0.68168E-05   -0.19860E-04  3068   0.822E-03    0.269E-02
RMM:  13    -0.229885689599E+04   -0.11316E-04   -0.10159E-04  2876   0.538E-03    0.124E-02
RMM:  14    -0.229885689791E+04   -0.19262E-05   -0.17686E-05  2726   0.374E-03
   3 F= -.23187707E+04 E0= -.23187705E+04  d E =-.230839E+00  mag=     1.0000
       N       E                     dE             d eps       ncg     rms          rms(c)
DAV:   1    -0.229878864107E+04    0.68255E-01   -0.10632E+01  4400   0.255E+00    0.120E+00
RMM:   2    -0.229901468955E+04   -0.22605E+00   -0.24094E+00  6385   0.714E-01    0.685E-01
RMM:   3    -0.229902558298E+04   -0.10893E-01   -0.16843E-01  5662   0.221E-01    0.488E-01
RMM:   4    -0.229902614193E+04   -0.55895E-03   -0.25587E-02  5679   0.519E-02    0.415E-01
RMM:   5    -0.229902604023E+04    0.10170E-03   -0.24127E-03  5162   0.223E-02    0.355E-01
RMM:   6    -0.229902544407E+04    0.59616E-03   -0.18761E-03  4382   0.174E-02    0.217E-01
RMM:   7    -0.229902539545E+04    0.48623E-04   -0.18373E-03  4920   0.220E-02    0.227E-01
RMM:   8    -0.229902546396E+04   -0.68516E-04   -0.48043E-04  3732   0.138E-02    0.144E-01
RMM:   9    -0.229902549164E+04   -0.27674E-04   -0.96012E-05  2879   0.505E-03    0.144E-01
RMM:  10    -0.229902526084E+04    0.23080E-03   -0.11355E-03  3907   0.149E-02    0.825E-02
RMM:  11    -0.229902517653E+04    0.84309E-04   -0.24119E-04  3163   0.918E-03    0.557E-02
RMM:  12    -0.229902514868E+04    0.27846E-04   -0.20773E-04  3332   0.737E-03    0.269E-02
RMM:  13    -0.229902513815E+04    0.10531E-04   -0.10394E-04  2869   0.632E-03    0.159E-02
RMM:  14    -0.229902513760E+04    0.55069E-06   -0.33651E-05  2754   0.405E-03
   4 F= -.23189409E+04 E0= -.23189407E+04  d E =-.170206E+00  mag=     1.0000
       N       E                     dE             d eps       ncg     rms          rms(c)
DAV:   1    -0.229885165693E+04    0.17348E+00   -0.99389E+00  4368   0.246E+00    0.116E+00
RMM:   2    -0.229906526275E+04   -0.21361E+00   -0.22845E+00  6436   0.693E-01    0.657E-01
RMM:   3    -0.229907620427E+04   -0.10942E-01   -0.16463E-01  5701   0.204E-01    0.482E-01
RMM:   4    -0.229907634150E+04   -0.13723E-03   -0.24510E-02  5596   0.504E-02    0.382E-01
RMM:   5    -0.229907629201E+04    0.49494E-04   -0.23617E-03  5068   0.212E-02    0.337E-01
RMM:   6    -0.229907579775E+04    0.49426E-03   -0.15336E-03  4203   0.168E-02    0.221E-01
RMM:   7    -0.229907577476E+04    0.22993E-04   -0.18896E-03  4826   0.213E-02    0.233E-01
RMM:   8    -0.229907585627E+04   -0.81517E-04   -0.53477E-04  3742   0.143E-02    0.158E-01
RMM:   9    -0.229907588900E+04   -0.32728E-04   -0.12416E-04  2900   0.525E-03    0.157E-01
RMM:  10    -0.229907560024E+04    0.28876E-03   -0.17919E-03  4070   0.185E-02    0.963E-02
RMM:  11    -0.229907548430E+04    0.11594E-03   -0.38805E-04  3394   0.114E-02    0.725E-02
RMM:  12    -0.229907543677E+04    0.47532E-04   -0.35923E-04  3734   0.932E-03    0.382E-02
RMM:  13    -0.229907541970E+04    0.17071E-04   -0.23110E-04  3076   0.848E-03    0.238E-02
RMM:  14    -0.229907541854E+04    0.11612E-05   -0.57680E-05  2786   0.494E-03
   5 F= -.23189932E+04 E0= -.23189929E+04  d E =-.222516E+00  mag=     1.0000
       N       E                     dE             d eps       ncg     rms          rms(c)
DAV:   1    -0.229912078139E+04   -0.45362E-01   -0.33078E+00  4400   0.181E+00    0.723E-01
RMM:   2    -0.229914755140E+04   -0.26770E-01   -0.30612E-01  6086   0.372E-01    0.271E-01
RMM:   3    -0.229914755347E+04   -0.20608E-05   -0.22415E-02  5187   0.119E-01    0.180E-01
RMM:   4    -0.229914726102E+04    0.29245E-03   -0.47704E-03  5130   0.403E-02    0.109E-01
RMM:   5    -0.229914710018E+04    0.16083E-03   -0.70245E-04  4777   0.221E-02    0.680E-02
RMM:   6    -0.229914703201E+04    0.68175E-04   -0.16886E-04  3611   0.950E-03    0.346E-02
RMM:   7    -0.229914703016E+04    0.18472E-05   -0.62847E-05  3050   0.603E-03
   6 F= -.23190654E+04 E0= -.23190651E+04  d E =-.722620E-01  mag=     1.0000
       N       E                     dE             d eps       ncg     rms          rms(c)
DAV:   1    -0.229912047409E+04    0.26558E-01   -0.87850E+00  4360   0.294E+00    0.117E+00
RMM:   2    -0.229919175814E+04   -0.71284E-01   -0.81512E-01  6039   0.600E-01    0.448E-01
RMM:   3    -0.229919182599E+04   -0.67849E-04   -0.64915E-02  5255   0.194E-01    0.305E-01
RMM:   4    -0.229919110572E+04    0.72026E-03   -0.12953E-02  5247   0.635E-02    0.212E-01
RMM:   5    -0.229919068510E+04    0.42063E-03   -0.19477E-03  4956   0.335E-02    0.179E-01
RMM:   6    -0.229919040710E+04    0.27800E-03   -0.53447E-04  4158   0.144E-02    0.111E-01
RMM:   7    -0.229919031864E+04    0.88456E-04   -0.44054E-04  4278   0.121E-02    0.125E-01
RMM:   8    -0.229919033374E+04   -0.15101E-04   -0.15120E-04  3327   0.813E-03    0.676E-02
RMM:   9    -0.229919031141E+04    0.22336E-04   -0.93192E-05  2917   0.573E-03    0.378E-02
RMM:  10    -0.229919030461E+04    0.67985E-05   -0.38706E-05  2848   0.452E-03
   7 F= -.23191098E+04 E0= -.23191093E+04  d E =-.116600E+00  mag=     1.0000
       N       E                     dE             d eps       ncg     rms          rms(c)
DAV:   1    -0.229921540286E+04   -0.25091E-01   -0.34577E+00  4536   0.157E+00    0.514E-01
RMM:   2    -0.229922649698E+04   -0.11094E-01   -0.16005E-01  6004   0.275E-01    0.298E-01
RMM:   3    -0.229922553874E+04    0.95824E-03   -0.10211E-02  5098   0.810E-02    0.203E-01
RMM:   4    -0.229922527118E+04    0.26756E-03   -0.37457E-03  4873   0.311E-02    0.144E-01
RMM:   5    -0.229922522405E+04    0.47129E-04   -0.43501E-04  3929   0.161E-02    0.132E-01
RMM:   6    -0.229922531241E+04   -0.88364E-04   -0.23292E-04  3340   0.775E-03    0.143E-01
RMM:   7    -0.229922533118E+04   -0.18770E-04   -0.35272E-05  2809   0.477E-03    0.142E-01
RMM:   8    -0.229922542375E+04   -0.92564E-04   -0.12468E-04  2930   0.511E-03    0.153E-01
RMM:   9    -0.229922512758E+04    0.29617E-03   -0.13494E-03  3948   0.161E-02    0.110E-01
RMM:  10    -0.229922493796E+04    0.18962E-03   -0.13923E-03  4109   0.171E-02    0.646E-02
RMM:  11    -0.229922489507E+04    0.42893E-04   -0.75485E-04  3729   0.126E-02    0.418E-02
RMM:  12    -0.229922488912E+04    0.59434E-05   -0.23721E-04  3062   0.789E-03    0.324E-02
RMM:  13    -0.229922489998E+04   -0.10858E-04   -0.33862E-04  3607   0.874E-03    0.194E-02
RMM:  14    -0.229922490507E+04   -0.50900E-05   -0.62369E-05  2846   0.611E-03
   8 F= -.23191455E+04 E0= -.23191446E+04  d E =-.356758E-01  mag=     1.0000
       N       E                     dE             d eps       ncg     rms          rms(c)
DAV:   1    -0.229922490086E+04   -0.88432E-06   -0.42995E-03  5104   0.547E-02    0.188E-02
RMM:   2    -0.229922491443E+04   -0.13569E-04   -0.19195E-04  3998   0.100E-02    0.133E-02
RMM:   3    -0.229922491517E+04   -0.73528E-06   -0.14398E-05  2763   0.445E-03
   9 F= -.23191455E+04 E0= -.23191447E+04  d E =-.357233E-01  mag=     1.0000
       N       E                     dE             d eps       ncg     rms          rms(c)
DAV:   1    -0.229924635205E+04   -0.21438E-01   -0.36975E+00  4384   0.181E+00    0.614E-01
RMM:   2    -0.229925331131E+04   -0.69593E-02   -0.10474E-01  5047   0.290E-01    0.248E-01
RMM:   3    -0.229925146094E+04    0.18504E-02   -0.70838E-03  4779   0.117E-01    0.140E-01
RMM:   4    -0.229925099438E+04    0.46656E-03   -0.30620E-03  4640   0.398E-02    0.691E-02
RMM:   5    -0.229925091396E+04    0.80419E-04   -0.24212E-04  4494   0.242E-02    0.594E-02
RMM:   6    -0.229925085303E+04    0.60936E-04   -0.11049E-04  3611   0.640E-03    0.341E-02
RMM:   7    -0.229925084336E+04    0.96689E-05   -0.43058E-05  2974   0.612E-03
  10 F= -.23191723E+04 E0= -.23191720E+04  d E =-.268356E-01  mag=     1.0000
       N       E                     dE             d eps       ncg     rms          rms(c)
DAV:   1    -0.229925117587E+04   -0.32284E-03   -0.16222E-01  4784   0.381E-01    0.133E-01
RMM:   2    -0.229925147223E+04   -0.29637E-03   -0.46685E-03  5239   0.624E-02    0.662E-02
RMM:   3    -0.229925136794E+04    0.10429E-03   -0.35230E-04  4682   0.248E-02    0.423E-02
RMM:   4    -0.229925134029E+04    0.27652E-04   -0.15810E-04  3929   0.892E-03    0.412E-02
RMM:   5    -0.229925134186E+04   -0.15718E-05   -0.14587E-05  2809   0.584E-03
  11 F= -.23191730E+04 E0= -.23191727E+04  d E =-.275215E-01  mag=     1.0000
       N       E                     dE             d eps       ncg     rms          rms(c)
DAV:   1    -0.229926305799E+04   -0.11718E-01   -0.12293E+00  4368   0.105E+00    0.229E-01
RMM:   2    -0.229926557073E+04   -0.25127E-02   -0.29645E-02  5039   0.148E-01    0.115E-01
RMM:   3    -0.229926526969E+04    0.30104E-03   -0.15502E-03  4630   0.614E-02    0.782E-02
RMM:   4    -0.229926519227E+04    0.77422E-04   -0.57782E-04  4415   0.188E-02    0.467E-02
RMM:   5    -0.229926517645E+04    0.15814E-04   -0.63426E-05  3194   0.109E-02    0.329E-02
RMM:   6    -0.229926517741E+04   -0.95506E-06   -0.39071E-05  2870   0.414E-03
  12 F= -.23191873E+04 E0= -.23191869E+04  d E =-.142573E-01  mag=     1.0000
       N       E                     dE             d eps       ncg     rms          rms(c)
DAV:   1    -0.229926345860E+04    0.17178E-02   -0.11054E+01  4360   0.315E+00    0.677E-01
RMM:   2    -0.229928637255E+04   -0.22914E-01   -0.26880E-01  5011   0.442E-01    0.327E-01
RMM:   3    -0.229928352186E+04    0.28507E-02   -0.13399E-02  4740   0.182E-01    0.215E-01
RMM:   4    -0.229928273935E+04    0.78251E-03   -0.54689E-03  4517   0.578E-02    0.965E-02
RMM:   5    -0.229928261589E+04    0.12346E-03   -0.42232E-04  4469   0.330E-02    0.599E-02
RMM:   6    -0.229928258138E+04    0.34505E-04   -0.18761E-04  4325   0.879E-03    0.535E-02
RMM:   7    -0.229928260006E+04   -0.18675E-04   -0.62389E-05  3241   0.815E-03    0.435E-02
RMM:   8    -0.229928259540E+04    0.46581E-05   -0.21845E-05  2788   0.461E-03
  13 F= -.23192059E+04 E0= -.23192056E+04  d E =-.329002E-01  mag=     1.0000
       N       E                     dE             d eps       ncg     rms          rms(c)
DAV:   1    -0.229928353111E+04   -0.93105E-03   -0.32709E+00  4432   0.169E+00    0.487E-01
RMM:   2    -0.229928792083E+04   -0.43897E-02   -0.77385E-02  4653   0.242E-01    0.219E-01
RMM:   3    -0.229928663381E+04    0.12870E-02   -0.48976E-03  4609   0.111E-01    0.133E-01
RMM:   4    -0.229928636180E+04    0.27201E-03   -0.18857E-03  4389   0.323E-02    0.101E-01
RMM:   5    -0.229928632079E+04    0.41008E-04   -0.21043E-04  3993   0.215E-02    0.814E-02
RMM:   6    -0.229928632970E+04   -0.89048E-05   -0.17749E-04  3488   0.674E-03    0.819E-02
RMM:   7    -0.229928634365E+04   -0.13956E-04   -0.47139E-05  2883   0.532E-03    0.747E-02
RMM:   8    -0.229928634925E+04   -0.55938E-05   -0.12068E-05  2750   0.310E-03
  14 F= -.23192101E+04 E0= -.23192095E+04  d E =-.418636E-02  mag=     1.0000
       N       E                     dE             d eps       ncg     rms          rms(c)
DAV:   1    -0.229928845342E+04   -0.21098E-02   -0.47272E-01  4464   0.640E-01    0.193E-01
RMM:   2    -0.229928906520E+04   -0.61178E-03   -0.11016E-02  4711   0.927E-02    0.103E-01
RMM:   3    -0.229928888918E+04    0.17602E-03   -0.77131E-04  4606   0.427E-02    0.820E-02
RMM:   4    -0.229928883709E+04    0.52087E-04   -0.39421E-04  4166   0.137E-02    0.613E-02
RMM:   5    -0.229928886356E+04   -0.26471E-04   -0.68145E-05  2983   0.976E-03    0.670E-02
RMM:   6    -0.229928886654E+04   -0.29792E-05   -0.16923E-05  2779   0.267E-03
  15 F= -.23192125E+04 E0= -.23192120E+04  d E =-.654189E-02  mag=     1.0000
       N       E                     dE             d eps       ncg     rms          rms(c)
DAV:   1    -0.229929205274E+04   -0.31892E-02   -0.25026E+00  4348   0.156E+00    0.447E-01
RMM:   2    -0.229929680305E+04   -0.47503E-02   -0.59939E-02  4653   0.233E-01    0.192E-01
RMM:   3    -0.229929609222E+04    0.71083E-03   -0.37304E-03  4615   0.103E-01    0.145E-01
RMM:   4    -0.229929602370E+04    0.68521E-04   -0.18078E-03  4440   0.339E-02    0.132E-01
RMM:   5    -0.229929605074E+04   -0.27044E-04   -0.19971E-04  3919   0.219E-02    0.130E-01
RMM:   6    -0.229929608588E+04   -0.35142E-04   -0.94379E-05  2967   0.527E-03    0.129E-01
RMM:   7    -0.229929613163E+04   -0.45751E-04   -0.90400E-05  2880   0.473E-03    0.129E-01
RMM:   8    -0.229929610677E+04    0.24868E-04   -0.15482E-05  2734   0.306E-03    0.127E-01
RMM:   9    -0.229929598003E+04    0.12674E-03   -0.32346E-03  4353   0.270E-02    0.171E-01
RMM:  10    -0.229929606986E+04   -0.89835E-04   -0.30176E-04  3771   0.149E-02    0.175E-01
RMM:  11    -0.229929570974E+04    0.36013E-03   -0.44553E-03  4228   0.276E-02    0.154E-01
RMM:  12    -0.229929548096E+04    0.22877E-03   -0.11773E-03  3794   0.186E-02    0.164E-01
RMM:  13    -0.229929599429E+04   -0.51333E-03   -0.56489E-03  4223   0.315E-02    0.144E-01
RMM:  14    -0.229929596193E+04    0.32361E-04   -0.15897E-03  4145   0.222E-02    0.141E-01
RMM:  15    -0.229929629236E+04   -0.33043E-03   -0.39387E-03  4440   0.268E-02    0.175E-01
RMM:  16    -0.229929601056E+04    0.28180E-03   -0.29754E-03  4280   0.248E-02    0.154E-01
RMM:  17    -0.229929537388E+04    0.63668E-03   -0.14277E-02  4367   0.488E-02    0.306E-01
RMM:  18    -0.229929669743E+04   -0.13235E-02   -0.19086E-02  4450   0.568E-02    0.164E-01
RMM:  19    -0.229929626293E+04    0.43449E-03   -0.44706E-03  4411   0.355E-02    0.168E-01
RMM:  20    -0.229929645646E+04   -0.19352E-03   -0.81016E-03  4480   0.380E-02    0.247E-01
RMM:  21    -0.229929646116E+04   -0.47067E-05   -0.70607E-04  3854   0.198E-02    0.174E-01
RMM:  22    -0.229929647127E+04   -0.10106E-04   -0.28762E-04  3107   0.638E-03    0.178E-01
RMM:  23    -0.229929646012E+04    0.11148E-04   -0.80831E-04  3819   0.117E-02    0.207E-01
RMM:  24    -0.229929649349E+04   -0.33366E-04   -0.12091E-04  2889   0.696E-03    0.163E-01
RMM:  25    -0.229929637047E+04    0.12301E-03   -0.16359E-03  4040   0.165E-02    0.233E-01
RMM:  26    -0.229929650834E+04   -0.13786E-03   -0.37302E-04  3484   0.103E-02    0.135E-01
RMM:  27    -0.229929654877E+04   -0.40436E-04   -0.16353E-04  2992   0.672E-03    0.692E-02
RMM:  28    -0.229929651964E+04    0.29133E-04   -0.13174E-04  2879   0.642E-03    0.940E-02
RMM:  29    -0.229929654915E+04   -0.29508E-04   -0.37186E-05  2709   0.357E-03    0.516E-02
RMM:  30    -0.229929657454E+04   -0.25392E-04   -0.38889E-04  3447   0.838E-03    0.301E-02
RMM:  31    -0.229929656591E+04    0.86292E-05   -0.11110E-04  2816   0.601E-03    0.314E-02
RMM:  32    -0.229929656664E+04   -0.72710E-06   -0.19209E-05  2625   0.282E-03
  16 F= -.23192204E+04 E0= -.23192202E+04  d E =-.791110E-02  mag=     1.0000
       N       E                     dE             d eps       ncg     rms          rms(c)
DAV:   1    -0.229929657073E+04   -0.48230E-05   -0.17669E-03  4680   0.405E-02    0.124E-02
RMM:   2    -0.229929657399E+04   -0.32571E-05   -0.45608E-05  3134   0.717E-03
  17 F= -.23192204E+04 E0= -.23192202E+04  d E =-.792359E-02  mag=     1.0000
       N       E                     dE             d eps       ncg     rms          rms(c)
DAV:   1    -0.229929977817E+04   -0.32074E-02   -0.19591E+00  4368   0.139E+00    0.282E-01
RMM:   2    -0.229930482383E+04   -0.50457E-02   -0.57696E-02  5342   0.208E-01    0.157E-01
RMM:   3    -0.229930445952E+04    0.36431E-03   -0.29574E-03  4703   0.803E-02    0.123E-01
RMM:   4    -0.229930439216E+04    0.67353E-04   -0.10846E-03  4493   0.243E-02    0.105E-01
RMM:   5    -0.229930440864E+04   -0.16477E-04   -0.15829E-04  3615   0.154E-02    0.995E-02
RMM:   6    -0.229930444968E+04   -0.41040E-04   -0.39981E-04  3854   0.969E-03    0.848E-02
RMM:   7    -0.229930443458E+04    0.15106E-04   -0.95239E-04  4104   0.154E-02    0.522E-02
RMM:   8    -0.229930440878E+04    0.25791E-04   -0.16910E-04  3141   0.828E-03    0.268E-02
RMM:   9    -0.229930441171E+04   -0.29220E-05   -0.42071E-05  2876   0.490E-03
  18 F= -.23192287E+04 E0= -.23192286E+04  d E =-.829114E-02  mag=     1.0000
       N       E                     dE             d eps       ncg     rms          rms(c)
DAV:   1    -0.229929745143E+04    0.69574E-02   -0.42980E+00  4360   0.205E+00    0.416E-01
RMM:   2    -0.229930846136E+04   -0.11010E-01   -0.12645E-01  5360   0.308E-01    0.221E-01
RMM:   3    -0.229930763646E+04    0.82490E-03   -0.64587E-03  4741   0.116E-01    0.161E-01
RMM:   4    -0.229930739932E+04    0.23714E-03   -0.25575E-03  4553   0.379E-02    0.114E-01
RMM:   5    -0.229930738682E+04    0.12495E-04   -0.30763E-04  4174   0.229E-02    0.103E-01
RMM:   6    -0.229930739024E+04   -0.34116E-05   -0.32888E-04  3878   0.910E-03    0.844E-02
RMM:   7    -0.229930735458E+04    0.35655E-04   -0.55521E-04  3840   0.126E-02    0.510E-02
RMM:   8    -0.229930735467E+04   -0.89771E-07   -0.63665E-05  2905   0.576E-03
  19 F= -.23192323E+04 E0= -.23192322E+04  d E =-.119000E-01  mag=     1.0000
       N       E                     dE             d eps       ncg     rms          rms(c)
DAV:   1    -0.229930862425E+04   -0.12697E-02   -0.14518E+00  4432   0.120E+00    0.253E-01
RMM:   2    -0.229931387980E+04   -0.52555E-02   -0.56372E-02  5530   0.184E-01    0.165E-01
RMM:   3    -0.229931378104E+04    0.98755E-04   -0.43096E-03  4740   0.738E-02    0.130E-01
RMM:   4    -0.229931367498E+04    0.10606E-03   -0.12227E-03  4724   0.203E-02    0.859E-02
RMM:   5    -0.229931363757E+04    0.37414E-04   -0.19782E-04  3903   0.128E-02    0.680E-02
RMM:   6    -0.229931362955E+04    0.80173E-05   -0.67150E-05  2880   0.510E-03
  20 F= -.23192390E+04 E0= -.23192389E+04  d E =-.666876E-02  mag=     1.0000
       N       E                     dE             d eps       ncg     rms          rms(c)
DAV:   1    -0.229930346918E+04    0.10168E-01   -0.39834E+00  4360   0.198E+00    0.425E-01
RMM:   2    -0.229931779290E+04   -0.14324E-01   -0.15456E-01  5526   0.306E-01    0.280E-01
RMM:   3    -0.229931749526E+04    0.29764E-03   -0.12760E-02  4800   0.126E-01    0.214E-01
RMM:   4    -0.229931717654E+04    0.31872E-03   -0.34726E-03  4968   0.343E-02    0.131E-01
RMM:   5    -0.229931706235E+04    0.11419E-03   -0.54600E-04  4716   0.202E-02    0.103E-01
RMM:   6    -0.229931704529E+04    0.17054E-04   -0.14221E-04  3089   0.686E-03    0.755E-02
RMM:   7    -0.229931701137E+04    0.33929E-04   -0.16383E-04  3077   0.689E-03    0.573E-02
RMM:   8    -0.229931702268E+04   -0.11311E-04   -0.84042E-05  3172   0.644E-03    0.346E-02
RMM:   9    -0.229931701626E+04    0.64201E-05   -0.21891E-05  2810   0.509E-03
  21 F= -.23192430E+04 E0= -.23192430E+04  d E =-.107055E-01  mag=     1.0000
       N       E                     dE             d eps       ncg     rms          rms(c)
DAV:   1    -0.229931961743E+04   -0.25947E-02   -0.10361E+00  4480   0.100E+00    0.215E-01
RMM:   2    -0.229932327619E+04   -0.36588E-02   -0.41620E-02  5693   0.159E-01    0.112E-01
RMM:   3    -0.229932320156E+04    0.74632E-04   -0.26207E-03  4894   0.577E-02    0.766E-02
RMM:   4    -0.229932314081E+04    0.60748E-04   -0.70453E-04  4478   0.181E-02    0.414E-02
RMM:   5    -0.229932312407E+04    0.16740E-04   -0.88485E-05  3383   0.107E-02    0.251E-02
RMM:   6    -0.229932312347E+04    0.60096E-06   -0.27802E-05  2816   0.398E-03
  22 F= -.23192493E+04 E0= -.23192493E+04  d E =-.632926E-02  mag=     1.0000
       N       E                     dE             d eps       ncg     rms          rms(c)
DAV:   1    -0.229931758220E+04    0.55419E-02   -0.23116E+00  4360   0.150E+00    0.321E-01
RMM:   2    -0.229932572353E+04   -0.81413E-02   -0.92520E-02  5597   0.237E-01    0.169E-01
RMM:   3    -0.229932555399E+04    0.16953E-03   -0.59647E-03  4927   0.904E-02    0.117E-01
RMM:   4    -0.229932541671E+04    0.13729E-03   -0.16081E-03  4623   0.271E-02    0.631E-02
RMM:   5    -0.229932537428E+04    0.42427E-04   -0.22238E-04  4285   0.161E-02    0.354E-02
RMM:   6    -0.229932537281E+04    0.14662E-05   -0.52551E-05  2876   0.483E-03
  23 F= -.23192519E+04 E0= -.23192519E+04  d E =-.890872E-02  mag=     1.0000
       N       E                     dE             d eps       ncg     rms          rms(c)
DAV:   1    -0.229932530739E+04    0.66886E-04   -0.77488E-02  4624   0.274E-01    0.593E-02
RMM:   2    -0.229932557745E+04   -0.27006E-03   -0.30787E-03  5940   0.437E-02    0.294E-02
RMM:   3    -0.229932557297E+04    0.44809E-05   -0.18031E-04  3342   0.138E-02    0.201E-02
RMM:   4    -0.229932556971E+04    0.32598E-05   -0.31458E-05  2829   0.449E-03
  24 F= -.23192520E+04 E0= -.23192520E+04  d E =-.904525E-02  mag=     1.0000
       N       E                     dE             d eps       ncg     rms          rms(c)
DAV:   1    -0.229932814416E+04   -0.25712E-02   -0.40883E-01  4368   0.621E-01    0.138E-01
RMM:   2    -0.229932947866E+04   -0.13345E-02   -0.14767E-02  5599   0.984E-02    0.756E-02
RMM:   3    -0.229932943764E+04    0.41023E-04   -0.97529E-04  4539   0.365E-02    0.529E-02
RMM:   4    -0.229932940897E+04    0.28674E-04   -0.27993E-04  4191   0.119E-02    0.275E-02
RMM:   5    -0.229932940356E+04    0.54066E-05   -0.32670E-05  2884   0.729E-03
  25 F= -.23192560E+04 E0= -.23192560E+04  d E =-.393647E-02  mag=     1.0000
       N       E                     dE             d eps       ncg     rms          rms(c)
DAV:   1    -0.229932268517E+04    0.67238E-02   -0.36635E+00  4360   0.186E+00    0.422E-01
RMM:   2    -0.229933475996E+04   -0.12075E-01   -0.13327E-01  5470   0.294E-01    0.242E-01
RMM:   3    -0.229933424475E+04    0.51520E-03   -0.85521E-03  4962   0.112E-01    0.168E-01
RMM:   4    -0.229933394780E+04    0.29695E-03   -0.26167E-03  4569   0.353E-02    0.825E-02
RMM:   5    -0.229933392560E+04    0.22204E-04   -0.25644E-04  4210   0.214E-02    0.571E-02
RMM:   6    -0.229933391266E+04    0.12936E-04   -0.84843E-05  3233   0.580E-03    0.335E-02
RMM:   7    -0.229933391341E+04   -0.74996E-06   -0.26352E-05  2817   0.469E-03
  26 F= -.23192608E+04 E0= -.23192608E+04  d E =-.875088E-02  mag=     1.0000
       N       E                     dE             d eps       ncg     rms          rms(c)
DAV:   1    -0.229933650859E+04   -0.25959E-02   -0.93880E-01  4360   0.920E-01    0.206E-01
RMM:   2    -0.229933875716E+04   -0.22486E-02   -0.26981E-02  5437   0.141E-01    0.104E-01
RMM:   3    -0.229933862152E+04    0.13564E-03   -0.15168E-03  4872   0.511E-02    0.658E-02
RMM:   4    -0.229933858385E+04    0.37669E-04   -0.35298E-04  4333   0.141E-02    0.413E-02
RMM:   5    -0.229933857678E+04    0.70787E-05   -0.60218E-05  3046   0.962E-03
  27 F= -.23192656E+04 E0= -.23192656E+04  d E =-.476980E-02  mag=     1.0000
       N       E                     dE             d eps       ncg     rms          rms(c)
DAV:   1    -0.229933272427E+04    0.58596E-02   -0.41066E+00  4352   0.192E+00    0.427E-01
RMM:   2    -0.229934259244E+04   -0.98682E-02   -0.11823E-01  5390   0.295E-01    0.216E-01
RMM:   3    -0.229934192952E+04    0.66292E-03   -0.62478E-03  4993   0.105E-01    0.138E-01
RMM:   4    -0.229934173183E+04    0.19769E-03   -0.17157E-03  4522   0.307E-02    0.766E-02
RMM:   5    -0.229934170663E+04    0.25193E-04   -0.22946E-04  4191   0.191E-02    0.536E-02
RMM:   6    -0.229934169021E+04    0.16421E-04   -0.13996E-04  3355   0.668E-03    0.281E-02
RMM:   7    -0.229934169092E+04   -0.70402E-06   -0.23576E-05  2829   0.493E-03
  28 F= -.23192689E+04 E0= -.23192689E+04  d E =-.810308E-02  mag=     1.0000
       N       E                     dE             d eps       ncg     rms          rms(c)
DAV:   1    -0.229934330948E+04   -0.16193E-02   -0.73007E-01  4432   0.796E-01    0.172E-01
RMM:   2    -0.229934507357E+04   -0.17641E-02   -0.20908E-02  5470   0.121E-01    0.995E-02
RMM:   3    -0.229934493657E+04    0.13700E-03   -0.11793E-03  4652   0.429E-02    0.695E-02
RMM:   4    -0.229934487870E+04    0.57870E-04   -0.47532E-04  4292   0.145E-02    0.279E-02
RMM:   5    -0.229934487579E+04    0.29127E-05   -0.35550E-05  2895   0.889E-03
  29 F= -.23192722E+04 E0= -.23192722E+04  d E =-.333069E-02  mag=     1.0000
       N       E                     dE             d eps       ncg     rms          rms(c)
DAV:   1    -0.229934390138E+04    0.97732E-03   -0.89713E-01  4360   0.883E-01    0.191E-01
RMM:   2    -0.229934608788E+04   -0.21865E-02   -0.25906E-02  5412   0.134E-01    0.113E-01
RMM:   3    -0.229934591135E+04    0.17653E-03   -0.14965E-03  4760   0.478E-02    0.791E-02
RMM:   4    -0.229934583677E+04    0.74585E-04   -0.60211E-04  4341   0.163E-02    0.304E-02
RMM:   5    -0.229934583307E+04    0.36983E-05   -0.44791E-05  2959   0.954E-03
  30 F= -.23192734E+04 E0= -.23192733E+04  d E =-.444961E-02  mag=     1.0000
       N       E                     dE             d eps       ncg     rms          rms(c)
DAV:   1    -0.229934769359E+04   -0.18568E-02   -0.28380E-01  4528   0.514E-01    0.135E-01
RMM:   2    -0.229934864874E+04   -0.95515E-03   -0.10684E-02  5684   0.836E-02    0.637E-02
RMM:   3    -0.229934859354E+04    0.55193E-04   -0.56931E-04  4492   0.289E-02    0.414E-02
RMM:   4    -0.229934857369E+04    0.19856E-04   -0.18472E-04  4077   0.105E-02    0.173E-02
RMM:   5    -0.229934857292E+04    0.77202E-06   -0.15760E-05  2809   0.654E-03
  31 F= -.23192762E+04 E0= -.23192762E+04  d E =-.280653E-02  mag=     1.0000
       N       E                     dE             d eps       ncg     rms          rms(c)
DAV:   1    -0.229934464042E+04    0.39333E-02   -0.22950E+00  4360   0.146E+00    0.380E-01
RMM:   2    -0.229935235405E+04   -0.77136E-02   -0.86067E-02  5774   0.239E-01    0.178E-01
RMM:   3    -0.229935195034E+04    0.40371E-03   -0.50775E-03  4978   0.827E-02    0.116E-01
RMM:   4    -0.229935181267E+04    0.13767E-03   -0.15953E-03  4699   0.293E-02    0.520E-02
RMM:   5    -0.229935178632E+04    0.26346E-04   -0.16257E-04  4019   0.165E-02    0.267E-02
RMM:   6    -0.229935178404E+04    0.22853E-05   -0.39464E-05  2909   0.445E-03
  32 F= -.23192796E+04 E0= -.23192796E+04  d E =-.620660E-02  mag=     1.0000
       N       E                     dE             d eps       ncg     rms          rms(c)
DAV:   1    -0.229935256849E+04   -0.78217E-03   -0.40355E-01  4480   0.619E-01    0.170E-01
RMM:   2    -0.229935479087E+04   -0.22224E-02   -0.23596E-02  5929   0.108E-01    0.885E-02
RMM:   3    -0.229935480384E+04   -0.12965E-04   -0.20417E-03  4724   0.395E-02    0.595E-02
RMM:   4    -0.229935478524E+04    0.18601E-04   -0.40885E-04  4279   0.120E-02    0.321E-02
RMM:   5    -0.229935477120E+04    0.14031E-04   -0.51015E-05  2970   0.755E-03    0.140E-02
RMM:   6    -0.229935477202E+04   -0.81961E-06   -0.11590E-05  2814   0.361E-03
  33 F= -.23192826E+04 E0= -.23192826E+04  d E =-.301022E-02  mag=     1.0000
       N       E                     dE             d eps       ncg     rms          rms(c)
DAV:   1    -0.229934844136E+04    0.63298E-02   -0.15250E+00  4360   0.120E+00    0.331E-01
RMM:   2    -0.229935688230E+04   -0.84409E-02   -0.89778E-02  5979   0.209E-01    0.175E-01
RMM:   3    -0.229935693783E+04   -0.55536E-04   -0.79738E-03  5016   0.776E-02    0.119E-01
RMM:   4    -0.229935686036E+04    0.77475E-04   -0.15684E-03  4972   0.225E-02    0.670E-02
RMM:   5    -0.229935679761E+04    0.62747E-04   -0.21006E-04  4334   0.135E-02    0.301E-02
RMM:   6    -0.229935679901E+04   -0.14013E-05   -0.39276E-05  2882   0.503E-03
  34 F= -.23192846E+04 E0= -.23192846E+04  d E =-.508302E-02  mag=     1.0000
       N       E                     dE             d eps       ncg     rms          rms(c)
DAV:   1    -0.229935715066E+04   -0.35305E-03   -0.30214E-01  4464   0.527E-01    0.134E-01
RMM:   2    -0.229935900490E+04   -0.18542E-02   -0.19952E-02  6087   0.928E-02    0.741E-02
RMM:   3    -0.229935903390E+04   -0.28999E-04   -0.13889E-03  4495   0.303E-02    0.490E-02
RMM:   4    -0.229935901822E+04    0.15685E-04   -0.25583E-04  3915   0.970E-03    0.237E-02
RMM:   5    -0.229935901744E+04    0.77198E-06   -0.22004E-05  2831   0.602E-03
  35 F= -.23192868E+04 E0= -.23192868E+04  d E =-.213170E-02  mag=     1.0000
       N       E                     dE             d eps       ncg     rms          rms(c)
DAV:   1    -0.229935549386E+04    0.35244E-02   -0.78606E-01  4368   0.851E-01    0.215E-01
RMM:   2    -0.229936031119E+04   -0.48173E-02   -0.51775E-02  6062   0.150E-01    0.118E-01
RMM:   3    -0.229936041713E+04   -0.10594E-03   -0.37895E-03  4996   0.506E-02    0.789E-02
RMM:   4    -0.229936038821E+04    0.28925E-04   -0.73364E-04  4401   0.155E-02    0.416E-02
RMM:   5    -0.229936037572E+04    0.12484E-04   -0.81820E-05  3098   0.920E-03    0.225E-02
RMM:   6    -0.229936037311E+04    0.26107E-05   -0.25976E-05  2827   0.388E-03
  36 F= -.23192880E+04 E0= -.23192880E+04  d E =-.334962E-02  mag=     1.0000
       N       E                     dE             d eps       ncg     rms          rms(c)
DAV:   1    -0.229936086930E+04   -0.49358E-03   -0.38549E-01  4400   0.601E-01    0.151E-01
RMM:   2    -0.229936325600E+04   -0.23867E-02   -0.25222E-02  6062   0.104E-01    0.823E-02
RMM:   3    -0.229936333701E+04   -0.81007E-04   -0.21968E-03  4651   0.385E-02    0.569E-02
RMM:   4    -0.229936332354E+04    0.13476E-04   -0.33318E-04  3973   0.105E-02    0.324E-02
RMM:   5    -0.229936331108E+04    0.12451E-04   -0.56817E-05  3039   0.713E-03    0.104E-02
RMM:   6    -0.229936331181E+04   -0.72326E-06   -0.10367E-05  2804   0.425E-03
  37 F= -.23192908E+04 E0= -.23192908E+04  d E =-.279696E-02  mag=     1.0000
       N       E                     dE             d eps       ncg     rms          rms(c)
DAV:   1    -0.229934567006E+04    0.17641E-01   -0.34724E+00  4360   0.180E+00    0.451E-01
RMM:   2    -0.229936708114E+04   -0.21411E-01   -0.22667E-01  6101   0.313E-01    0.246E-01
RMM:   3    -0.229936786638E+04   -0.78524E-03   -0.20725E-02  5084   0.105E-01    0.175E-01
RMM:   4    -0.229936772617E+04    0.14021E-03   -0.29361E-03  5224   0.290E-02    0.105E-01
RMM:   5    -0.229936759484E+04    0.13133E-03   -0.61130E-04  4709   0.178E-02    0.362E-02
RMM:   6    -0.229936759431E+04    0.52965E-06   -0.73968E-05  3313   0.841E-03
  38 F= -.23192947E+04 E0= -.23192946E+04  d E =-.665883E-02  mag=     1.0000
       N       E                     dE             d eps       ncg     rms          rms(c)
DAV:   1    -0.229936882699E+04   -0.12322E-02   -0.20266E-01  4624   0.451E-01    0.115E-01
RMM:   2    -0.229936983776E+04   -0.10108E-02   -0.10989E-02  6146   0.762E-02    0.604E-02
RMM:   3    -0.229936983633E+04    0.14265E-05   -0.78857E-04  4299   0.245E-02    0.395E-02
RMM:   4    -0.229936982411E+04    0.12216E-04   -0.16897E-04  3862   0.909E-03    0.197E-02
RMM:   5    -0.229936982172E+04    0.23899E-05   -0.22406E-05  2859   0.579E-03
  39 F= -.23192968E+04 E0= -.23192968E+04  d E =-.212007E-02  mag=     1.0000
       N       E                     dE             d eps       ncg     rms          rms(c)
DAV:   1    -0.229936517682E+04    0.46473E-02   -0.15065E+00  4364   0.123E+00    0.309E-01
RMM:   2    -0.229937256574E+04   -0.73889E-02   -0.80480E-02  5783   0.202E-01    0.163E-01
RMM:   3    -0.229937248841E+04    0.77333E-04   -0.58129E-03  4814   0.747E-02    0.108E-01
RMM:   4    -0.229937237058E+04    0.11783E-03   -0.13211E-03  4709   0.243E-02    0.517E-02
RMM:   5    -0.229937234834E+04    0.22236E-04   -0.17787E-04  4210   0.149E-02    0.273E-02
RMM:   6    -0.229937234293E+04    0.54123E-05   -0.33956E-05  2854   0.428E-03
  40 F= -.23192990E+04 E0= -.23192990E+04  d E =-.434867E-02  mag=     1.0000
       N       E                     dE             d eps       ncg     rms          rms(c)
DAV:   1    -0.229937308709E+04   -0.73875E-03   -0.18273E-01  4632   0.425E-01    0.103E-01
RMM:   2    -0.229937390626E+04   -0.81918E-03   -0.91225E-03  5799   0.676E-02    0.572E-02
RMM:   3    -0.229937390486E+04    0.14001E-05   -0.75296E-04  4063   0.249E-02    0.384E-02
RMM:   4    -0.229937389353E+04    0.11340E-04   -0.14690E-04  3615   0.790E-03    0.191E-02
RMM:   5    -0.229937388980E+04    0.37215E-05   -0.19722E-05  2833   0.523E-03
  41 F= -.23193005E+04 E0= -.23193005E+04  d E =-.148821E-02  mag=     1.0000
       N       E                     dE             d eps       ncg     rms          rms(c)
DAV:   1    -0.229937120562E+04    0.26879E-02   -0.92824E-01  4364   0.958E-01    0.229E-01
RMM:   2    -0.229937531097E+04   -0.41054E-02   -0.45870E-02  5680   0.150E-01    0.127E-01
RMM:   3    -0.229937529779E+04    0.13180E-04   -0.38886E-03  4680   0.598E-02    0.844E-02
RMM:   4    -0.229937524401E+04    0.53778E-04   -0.77378E-04  4623   0.169E-02    0.440E-02
RMM:   5    -0.229937521887E+04    0.25146E-04   -0.10454E-04  3477   0.106E-02    0.180E-02
RMM:   6    -0.229937521885E+04    0.22163E-07   -0.21448E-05  2827   0.437E-03
  42 F= -.23193017E+04 E0= -.23193017E+04  d E =-.268527E-02  mag=     1.0000
       N       E                     dE             d eps       ncg     rms          rms(c)
DAV:   1    -0.229937595250E+04   -0.73363E-03   -0.23866E-01  4400   0.495E-01    0.121E-01
RMM:   2    -0.229937706142E+04   -0.11089E-02   -0.12265E-02  5837   0.798E-02    0.592E-02
RMM:   3    -0.229937704556E+04    0.15859E-04   -0.78815E-04  4391   0.287E-02    0.388E-02
RMM:   4    -0.229937702775E+04    0.17808E-04   -0.16715E-04  3977   0.918E-03    0.167E-02
RMM:   5    -0.229937702820E+04   -0.45460E-06   -0.15891E-05  2818   0.623E-03
  43 F= -.23193034E+04 E0= -.23193034E+04  d E =-.174225E-02  mag=     1.0000
       N       E                     dE             d eps       ncg     rms          rms(c)
DAV:   1    -0.229937035110E+04    0.66766E-02   -0.19170E+00  4364   0.140E+00    0.340E-01
RMM:   2    -0.229937922394E+04   -0.88728E-02   -0.98118E-02  5685   0.224E-01    0.167E-01
RMM:   3    -0.229937907804E+04    0.14590E-03   -0.63150E-03  4824   0.799E-02    0.112E-01
RMM:   4    -0.229937893802E+04    0.14002E-03   -0.14471E-03  4575   0.259E-02    0.521E-02
RMM:   5    -0.229937893185E+04    0.61724E-05   -0.15953E-04  4130   0.158E-02    0.249E-02
RMM:   6    -0.229937892749E+04    0.43578E-05   -0.29840E-05  2840   0.406E-03
  44 F= -.23193051E+04 E0= -.23193051E+04  d E =-.345117E-02  mag=     1.0000
       N       E                     dE             d eps       ncg     rms          rms(c)
DAV:   1    -0.229937943508E+04   -0.50323E-03   -0.28462E-01  4528   0.537E-01    0.127E-01
RMM:   2    -0.229938084332E+04   -0.14082E-02   -0.15384E-02  5725   0.872E-02    0.690E-02
RMM:   3    -0.229938084134E+04    0.19849E-05   -0.11093E-03  4435   0.307E-02    0.470E-02
RMM:   4    -0.229938082338E+04    0.17960E-04   -0.22738E-04  4086   0.101E-02    0.228E-02
RMM:   5    -0.229938082047E+04    0.29037E-05   -0.27606E-05  2861   0.633E-03
  45 F= -.23193070E+04 E0= -.23193070E+04  d E =-.184669E-02  mag=     1.0000
       N       E                     dE             d eps       ncg     rms          rms(c)
DAV:   1    -0.229937076237E+04    0.10061E-01   -0.25548E+00  4360   0.161E+00    0.377E-01
RMM:   2    -0.229938335004E+04   -0.12588E-01   -0.13799E-01  5725   0.261E-01    0.203E-01
RMM:   3    -0.229938335670E+04   -0.66587E-05   -0.10194E-02  4859   0.941E-02    0.139E-01
RMM:   4    -0.229938320524E+04    0.15147E-03   -0.20265E-03  4738   0.290E-02    0.733E-02
RMM:   5    -0.229938315261E+04    0.52628E-04   -0.31633E-04  4497   0.176E-02    0.265E-02
RMM:   6    -0.229938315411E+04   -0.15057E-05   -0.46080E-05  3052   0.565E-03
  46 F= -.23193092E+04 E0= -.23193092E+04  d E =-.404142E-02  mag=     1.0000
       N       E                     dE             d eps       ncg     rms          rms(c)
DAV:   1    -0.229938396932E+04   -0.81671E-03   -0.36664E-01  4448   0.612E-01    0.171E-01
RMM:   2    -0.229938550887E+04   -0.15395E-02   -0.17873E-02  5679   0.101E-01    0.812E-02
RMM:   3    -0.229938544747E+04    0.61394E-04   -0.11222E-03  4726   0.357E-02    0.505E-02
RMM:   4    -0.229938542596E+04    0.21515E-04   -0.29218E-04  4207   0.121E-02    0.231E-02
RMM:   5    -0.229938542638E+04   -0.42710E-06   -0.23311E-05  2820   0.782E-03
  47 F= -.23193114E+04 E0= -.23193114E+04  d E =-.224313E-02  mag=     1.0000
       N       E                     dE             d eps       ncg     rms          rms(c)
DAV:   1    -0.229938463480E+04    0.79116E-03   -0.37515E-01  4364   0.619E-01    0.174E-01
RMM:   2    -0.229938619942E+04   -0.15646E-02   -0.18136E-02  5603   0.101E-01    0.837E-02
RMM:   3    -0.229938613640E+04    0.63025E-04   -0.11799E-03  4656   0.370E-02    0.525E-02
RMM:   4    -0.229938610997E+04    0.26423E-04   -0.33018E-04  4254   0.129E-02    0.226E-02
RMM:   5    -0.229938611003E+04   -0.54686E-07   -0.23365E-05  2836   0.819E-03
  48 F= -.23193121E+04 E0= -.23193121E+04  d E =-.289698E-02  mag=     1.0000
       N       E                     dE             d eps       ncg     rms          rms(c)
DAV:   1    -0.229938686440E+04   -0.75442E-03   -0.19297E-01  4496   0.436E-01    0.113E-01
RMM:   2    -0.229938763867E+04   -0.77427E-03   -0.89265E-03  5521   0.697E-02    0.628E-02
RMM:   3    -0.229938761622E+04    0.22443E-04   -0.70605E-04  4275   0.257E-02    0.414E-02
RMM:   4    -0.229938760562E+04    0.10605E-04   -0.18059E-04  3948   0.896E-03    0.194E-02
RMM:   5    -0.229938760083E+04    0.47940E-05   -0.21482E-05  2833   0.576E-03
  49 F= -.23193136E+04 E0= -.23193136E+04  d E =-.151569E-02  mag=     1.0000
       N       E                     dE             d eps       ncg     rms          rms(c)
DAV:   1    -0.229938713273E+04    0.47289E-03   -0.27410E-01  4364   0.520E-01    0.134E-01
RMM:   2    -0.229938825072E+04   -0.11180E-02   -0.12800E-02  5418   0.827E-02    0.734E-02
RMM:   3    -0.229938821620E+04    0.34516E-04   -0.96408E-04  4504   0.330E-02    0.484E-02
RMM:   4    -0.229938820115E+04    0.15050E-04   -0.26898E-04  4178   0.106E-02    0.226E-02
RMM:   5    -0.229938819356E+04    0.75951E-05   -0.28692E-05  2860   0.681E-03
  50 F= -.23193142E+04 E0= -.23193142E+04  d E =-.213846E-02  mag=     1.0000
       N       E                     dE             d eps       ncg     rms          rms(c)
DAV:   1    -0.229938921961E+04   -0.10185E-02   -0.10963E-01  4496   0.339E-01    0.100E-01
RMM:   2    -0.229938963643E+04   -0.41682E-03   -0.47862E-03  5358   0.554E-02    0.429E-02
RMM:   3    -0.229938960973E+04    0.26699E-04   -0.27779E-04  4187   0.215E-02    0.267E-02
RMM:   4    -0.229938960276E+04    0.69760E-05   -0.92955E-05  3890   0.763E-03
  51 F= -.23193156E+04 E0= -.23193156E+04  d E =-.143768E-02  mag=     1.0000
       N       E                     dE             d eps       ncg     rms          rms(c)
DAV:   1    -0.229938862128E+04    0.98845E-03   -0.69491E-01  4364   0.853E-01    0.251E-01
RMM:   2    -0.229939123798E+04   -0.26167E-02   -0.29980E-02  5738   0.141E-01    0.106E-01
RMM:   3    -0.229939108675E+04    0.15122E-03   -0.18939E-03  4975   0.478E-02    0.667E-02
RMM:   4    -0.229939103812E+04    0.48635E-04   -0.55025E-04  4691   0.175E-02    0.287E-02
RMM:   5    -0.229939102928E+04    0.88363E-05   -0.53819E-05  3201   0.101E-02
  52 F= -.23193171E+04 E0= -.23193171E+04  d E =-.293608E-02  mag=     1.0000
       N       E                     dE             d eps       ncg     rms          rms(c)
DAV:   1    -0.229939200266E+04   -0.96454E-03   -0.17645E-01  4464   0.422E-01    0.104E-01
RMM:   2    -0.229939266419E+04   -0.66153E-03   -0.72015E-03  5545   0.679E-02    0.549E-02
RMM:   3    -0.229939264497E+04    0.19218E-04   -0.51255E-04  4179   0.239E-02    0.356E-02
RMM:   4    -0.229939263980E+04    0.51729E-05   -0.12675E-04  3858   0.837E-03    0.180E-02
RMM:   5    -0.229939263673E+04    0.30615E-05   -0.17103E-05  2819   0.557E-03
  53 F= -.23193187E+04 E0= -.23193187E+04  d E =-.159931E-02  mag=     1.0000
       N       E                     dE             d eps       ncg     rms          rms(c)
DAV:   1    -0.229938931989E+04    0.33199E-02   -0.14792E+00  4360   0.122E+00    0.299E-01
RMM:   2    -0.229939482767E+04   -0.55078E-02   -0.60189E-02  5384   0.195E-01    0.157E-01
RMM:   3    -0.229939461066E+04    0.21701E-03   -0.41507E-03  4864   0.711E-02    0.102E-01
RMM:   4    -0.229939454711E+04    0.63545E-04   -0.10968E-03  4676   0.232E-02    0.518E-02
RMM:   5    -0.229939451637E+04    0.30748E-04   -0.13646E-04  3903   0.145E-02    0.235E-02
RMM:   6    -0.229939451432E+04    0.20427E-05   -0.30276E-05  2849   0.398E-03
  54 F= -.23193206E+04 E0= -.23193206E+04  d E =-.345594E-02  mag=     1.0000
       N       E                     dE             d eps       ncg     rms          rms(c)
DAV:   1    -0.229939535991E+04   -0.84354E-03   -0.22383E-01  4460   0.474E-01    0.119E-01
RMM:   2    -0.229939609733E+04   -0.73742E-03   -0.83042E-03  5375   0.747E-02    0.581E-02
RMM:   3    -0.229939605639E+04    0.40940E-04   -0.45524E-04  4552   0.268E-02    0.366E-02
RMM:   4    -0.229939604593E+04    0.10456E-04   -0.14166E-04  4012   0.905E-03    0.162E-02
RMM:   5    -0.229939604646E+04   -0.53436E-06   -0.11337E-05  2802   0.595E-03
  55 F= -.23193221E+04 E0= -.23193221E+04  d E =-.151319E-02  mag=     1.0000
       N       E                     dE             d eps       ncg     rms          rms(c)
DAV:   1    -0.229939412040E+04    0.19255E-02   -0.10112E+00  4360   0.101E+00    0.252E-01
RMM:   2    -0.229939746444E+04   -0.33440E-02   -0.37660E-02  5281   0.159E-01    0.122E-01
RMM:   3    -0.229939725013E+04    0.21431E-03   -0.18391E-03  4833   0.560E-02    0.763E-02
RMM:   4    -0.229939719657E+04    0.53560E-04   -0.63845E-04  4433   0.189E-02    0.288E-02
RMM:   5    -0.229939719507E+04    0.14995E-05   -0.46495E-05  3210   0.120E-02
  56 F= -.23193232E+04 E0= -.23193232E+04  d E =-.262208E-02  mag=     1.0000
       N       E                     dE             d eps       ncg     rms          rms(c)
DAV:   1    -0.229939780323E+04   -0.60666E-03   -0.19664E-01  4476   0.433E-01    0.105E-01
RMM:   2    -0.229939844503E+04   -0.64180E-03   -0.73343E-03  5243   0.670E-02    0.593E-02
RMM:   3    -0.229939841158E+04    0.33454E-04   -0.49959E-04  4173   0.232E-02    0.378E-02
RMM:   4    -0.229939840319E+04    0.83925E-05   -0.16301E-04  4004   0.869E-03    0.142E-02
RMM:   5    -0.229939840109E+04    0.20947E-05   -0.13597E-05  2816   0.565E-03
  57 F= -.23193245E+04 E0= -.23193245E+04  d E =-.123744E-02  mag=     1.0000
       N       E                     dE             d eps       ncg     rms          rms(c)
DAV:   1    -0.229939804552E+04    0.35767E-03   -0.28489E-01  4360   0.520E-01    0.125E-01
RMM:   2    -0.229939896583E+04   -0.92031E-03   -0.10517E-02  5223   0.799E-02    0.712E-02
RMM:   3    -0.229939892075E+04    0.45082E-04   -0.74437E-04  4435   0.310E-02    0.457E-02
RMM:   4    -0.229939890708E+04    0.13664E-04   -0.25043E-04  4145   0.103E-02    0.173E-02
RMM:   5    -0.229939890334E+04    0.37387E-05   -0.19142E-05  2838   0.660E-03
  58 F= -.23193250E+04 E0= -.23193250E+04  d E =-.177780E-02  mag=     1.0000
       N       E                     dE             d eps       ncg     rms          rms(c)
DAV:   1    -0.229939975760E+04   -0.85052E-03   -0.89403E-02  4544   0.296E-01    0.855E-02
RMM:   2    -0.229940004807E+04   -0.29047E-03   -0.34068E-03  5229   0.473E-02    0.405E-02
RMM:   3    -0.229940002676E+04    0.21315E-04   -0.20262E-04  3914   0.184E-02    0.249E-02
RMM:   4    -0.229940002118E+04    0.55782E-05   -0.65022E-05  3520   0.639E-03
  59 F= -.23193262E+04 E0= -.23193262E+04  d E =-.117258E-02  mag=     1.0000
       N       E                     dE             d eps       ncg     rms          rms(c)
DAV:   1    -0.229939927679E+04    0.74996E-03   -0.60446E-01  4360   0.770E-01    0.221E-01
RMM:   2    -0.229940124299E+04   -0.19662E-02   -0.22974E-02  5415   0.124E-01    0.103E-01
RMM:   3    -0.229940110057E+04    0.14243E-03   -0.13778E-03  4827   0.470E-02    0.627E-02
RMM:   4    -0.229940105691E+04    0.43652E-04   -0.46238E-04  4485   0.154E-02    0.270E-02
RMM:   5    -0.229940104657E+04    0.10347E-04   -0.45024E-05  3129   0.105E-02    0.120E-02
RMM:   6    -0.229940104363E+04    0.29401E-05   -0.18126E-05  2825   0.344E-03
  60 F= -.23193273E+04 E0= -.23193273E+04  d E =-.233646E-02  mag=     1.0000
       N       E                     dE             d eps       ncg     rms          rms(c)
DAV:   1    -0.229940148854E+04   -0.44198E-03   -0.13976E-01  4428   0.362E-01    0.100E-01
RMM:   2    -0.229940198749E+04   -0.49894E-03   -0.56044E-03  5604   0.582E-02    0.512E-02
RMM:   3    -0.229940196679E+04    0.20703E-04   -0.41445E-04  4031   0.222E-02    0.324E-02
RMM:   4    -0.229940196007E+04    0.67155E-05   -0.12119E-04  3697   0.783E-03    0.146E-02
RMM:   5    -0.229940195778E+04    0.22882E-05   -0.14039E-05  2822   0.523E-03
  61 F= -.23193284E+04 E0= -.23193284E+04  d E =-.102092E-02  mag=     1.0000
       N       E                     dE             d eps       ncg     rms          rms(c)
DAV:   1    -0.229940091649E+04    0.10436E-02   -0.44926E-01  4360   0.649E-01    0.181E-01
RMM:   2    -0.229940252342E+04   -0.16069E-02   -0.18063E-02  5268   0.103E-01    0.939E-02
RMM:   3    -0.229940244784E+04    0.75587E-04   -0.13738E-03  4592   0.416E-02    0.598E-02
RMM:   4    -0.229940242605E+04    0.21786E-04   -0.42944E-04  4392   0.136E-02    0.276E-02
RMM:   5    -0.229940241473E+04    0.11323E-04   -0.46271E-05  2924   0.859E-03    0.127E-02
RMM:   6    -0.229940241471E+04    0.21144E-07   -0.10971E-05  2812   0.280E-03
  62 F= -.23193290E+04 E0= -.23193290E+04  d E =-.166825E-02  mag=     1.0000
       N       E                     dE             d eps       ncg     rms          rms(c)
DAV:   1    -0.229940282973E+04   -0.41500E-03   -0.13420E-01  4412   0.344E-01    0.972E-02
RMM:   2    -0.229940326625E+04   -0.43652E-03   -0.52089E-03  5540   0.555E-02    0.489E-02
RMM:   3    -0.229940323727E+04    0.28982E-04   -0.27540E-04  3996   0.208E-02    0.300E-02
RMM:   4    -0.229940322954E+04    0.77216E-05   -0.95968E-05  3665   0.727E-03
  63 F= -.23193299E+04 E0= -.23193299E+04  d E =-.901209E-03  mag=     1.0000
       N       E                     dE             d eps       ncg     rms          rms(c)
DAV:   1    -0.229940306761E+04    0.16965E-03   -0.10282E-01  4396   0.301E-01    0.854E-02
RMM:   2    -0.229940341535E+04   -0.34773E-03   -0.40644E-03  5955   0.507E-02    0.437E-02
RMM:   3    -0.229940339301E+04    0.22336E-04   -0.21042E-04  3637   0.140E-02    0.270E-02
RMM:   4    -0.229940338707E+04    0.59375E-05   -0.62150E-05  2973   0.589E-03
  64 F= -.23193301E+04 E0= -.23193301E+04  d E =-.113440E-02  mag=     1.0000
       N       E                     dE             d eps       ncg     rms          rms(c)
DAV:   1    -0.229940391433E+04   -0.52132E-03   -0.13130E-01  4360   0.335E-01    0.934E-02
RMM:   2    -0.229940429736E+04   -0.38303E-03   -0.43545E-03  5747   0.535E-02    0.480E-02
RMM:   3    -0.229940426791E+04    0.29450E-04   -0.25756E-04  3941   0.194E-02    0.291E-02
RMM:   4    -0.229940426266E+04    0.52535E-05   -0.98869E-05  3500   0.719E-03
  65 F= -.23193311E+04 E0= -.23193311E+04  d E =-.964802E-03  mag=     1.0000
       N       E                     dE             d eps       ncg     rms          rms(c)
DAV:   1    -0.229940364302E+04    0.62489E-03   -0.42064E-01  4360   0.600E-01    0.167E-01
RMM:   2    -0.229940487211E+04   -0.12291E-02   -0.13949E-02  5650   0.959E-02    0.863E-02
RMM:   3    -0.229940478826E+04    0.83850E-04   -0.95532E-04  4651   0.360E-02    0.532E-02
RMM:   4    -0.229940476854E+04    0.19723E-04   -0.34008E-04  4262   0.125E-02    0.235E-02
RMM:   5    -0.229940476028E+04    0.82619E-05   -0.31802E-05  2867   0.772E-03
  66 F= -.23193318E+04 E0= -.23193318E+04  d E =-.162208E-02  mag=     1.0000
       N       E                     dE             d eps       ncg     rms          rms(c)
DAV:   1    -0.229940554134E+04   -0.77280E-03   -0.16357E-01  4376   0.364E-01    0.901E-02
RMM:   2    -0.229940589852E+04   -0.35717E-03   -0.41248E-03  5252   0.545E-02    0.493E-02
RMM:   3    -0.229940586408E+04    0.34439E-04   -0.22428E-04  4040   0.204E-02    0.303E-02
RMM:   4    -0.229940585743E+04    0.66459E-05   -0.11186E-04  3856   0.776E-03    0.962E-03
RMM:   5    -0.229940585634E+04    0.10913E-05   -0.66054E-06  2784   0.490E-03
  67 F= -.23193329E+04 E0= -.23193329E+04  d E =-.114165E-02  mag=     1.0000
       N       E                     dE             d eps       ncg     rms          rms(c)
DAV:   1    -0.229940463490E+04    0.12225E-02   -0.14754E+00  4360   0.109E+00    0.266E-01
RMM:   2    -0.229940783517E+04   -0.32003E-02   -0.37118E-02  5080   0.162E-01    0.145E-01
RMM:   3    -0.229940749931E+04    0.33586E-03   -0.19961E-03  4626   0.589E-02    0.906E-02
RMM:   4    -0.229940742936E+04    0.69946E-04   -0.10557E-03  4441   0.231E-02    0.297E-02
RMM:   5    -0.229940741523E+04    0.14128E-04   -0.65929E-05  3333   0.132E-02    0.160E-02
RMM:   6    -0.229940741277E+04    0.24586E-05   -0.24748E-05  2836   0.387E-03
  68 F= -.23193346E+04 E0= -.23193346E+04  d E =-.283732E-02  mag=     1.0000
       N       E                     dE             d eps       ncg     rms          rms(c)
DAV:   1    -0.229940828381E+04   -0.86858E-03   -0.37923E-01  4376   0.537E-01    0.143E-01
RMM:   2    -0.229940893711E+04   -0.65330E-03   -0.84215E-03  4951   0.783E-02    0.746E-02
RMM:   3    -0.229940883489E+04    0.10222E-03   -0.47623E-04  4458   0.298E-02    0.442E-02
RMM:   4    -0.229940881570E+04    0.19190E-04   -0.22084E-04  4112   0.109E-02    0.163E-02
RMM:   5    -0.229940881304E+04    0.26613E-05   -0.15015E-05  2811   0.698E-03
  69 F= -.23193361E+04 E0= -.23193361E+04  d E =-.145577E-02  mag=     1.0000
       N       E                     dE             d eps       ncg     rms          rms(c)
DAV:   1    -0.229940884280E+04   -0.27098E-04   -0.11141E-01  4544   0.292E-01    0.793E-02
RMM:   2    -0.229940903007E+04   -0.18727E-03   -0.24601E-03  4837   0.425E-02    0.422E-02
RMM:   3    -0.229940899671E+04    0.33367E-04   -0.14095E-04  3791   0.164E-02    0.245E-02
RMM:   4    -0.229940899127E+04    0.54311E-05   -0.77354E-05  3748   0.657E-03
  70 F= -.23193363E+04 E0= -.23193363E+04  d E =-.166461E-02  mag=     1.0000
       N       E                     dE             d eps       ncg     rms          rms(c)
DAV:   1    -0.229940955889E+04   -0.56218E-03   -0.36215E-01  4352   0.513E-01    0.136E-01
RMM:   2    -0.229941017556E+04   -0.61667E-03   -0.77322E-03  4961   0.771E-02    0.773E-02
RMM:   3    -0.229941006715E+04    0.10841E-03   -0.50393E-04  4803   0.303E-02    0.459E-02
RMM:   4    -0.229941004684E+04    0.20311E-04   -0.22120E-04  4063   0.104E-02    0.175E-02
RMM:   5    -0.229941004228E+04    0.45542E-05   -0.18788E-05  2833   0.641E-03
  71 F= -.23193374E+04 E0= -.23193374E+04  d E =-.109644E-02  mag=     1.0000
       N       E                     dE             d eps       ncg     rms          rms(c)
DAV:   1    -0.229941003118E+04    0.15661E-04   -0.94252E-02  4416   0.262E-01    0.697E-02
RMM:   2    -0.229941019359E+04   -0.16241E-03   -0.20244E-03  4619   0.388E-02    0.401E-02
RMM:   3    -0.229941016536E+04    0.28231E-04   -0.12475E-04  3825   0.163E-02    0.243E-02
RMM:   4    -0.229941015895E+04    0.64088E-05   -0.72818E-05  3607   0.637E-03
  72 F= -.23193375E+04 E0= -.23193375E+04  d E =-.123677E-02  mag=     1.0000
       N       E                     dE             d eps       ncg     rms          rms(c)
DAV:   1    -0.229941093116E+04   -0.76580E-03   -0.23570E-01  4360   0.409E-01    0.115E-01
RMM:   2    -0.229941131676E+04   -0.38560E-03   -0.47816E-03  5014   0.602E-02    0.577E-02
RMM:   3    -0.229941125977E+04    0.56985E-04   -0.29143E-04  4732   0.248E-02    0.341E-02
RMM:   4    -0.229941124927E+04    0.10503E-04   -0.14659E-04  3993   0.875E-03    0.108E-02
RMM:   5    -0.229941124752E+04    0.17446E-05   -0.94346E-06  2799   0.553E-03
  73 F= -.23193387E+04 E0= -.23193387E+04  d E =-.119214E-02  mag=     1.0000
       N       E                     dE             d eps       ncg     rms          rms(c)
DAV:   1    -0.229941101932E+04    0.22995E-03   -0.68367E-01  4360   0.696E-01    0.196E-01
RMM:   2    -0.229941211338E+04   -0.10941E-02   -0.13727E-02  4661   0.999E-02    0.984E-02
RMM:   3    -0.229941194897E+04    0.16441E-03   -0.78638E-04  4432   0.380E-02    0.587E-02
RMM:   4    -0.229941191773E+04    0.31246E-04   -0.49609E-04  4372   0.155E-02    0.194E-02
RMM:   5    -0.229941190700E+04    0.10731E-04   -0.29642E-05  2902   0.910E-03    0.106E-02
RMM:   6    -0.229941190572E+04    0.12750E-05   -0.13502E-05  2799   0.305E-03
  74 F= -.23193395E+04 E0= -.23193395E+04  d E =-.202853E-02  mag=     1.0000
       N       E                     dE             d eps       ncg     rms          rms(c)
DAV:   1    -0.229941257607E+04   -0.66907E-03   -0.32152E-01  4360   0.442E-01    0.129E-01
RMM:   2    -0.229941315691E+04   -0.58085E-03   -0.73761E-03  5189   0.658E-02    0.747E-02
RMM:   3    -0.229941309044E+04    0.66470E-04   -0.53689E-04  4269   0.256E-02    0.437E-02
RMM:   4    -0.229941308389E+04    0.65538E-05   -0.23669E-04  3999   0.954E-03    0.209E-02
RMM:   5    -0.229941307680E+04    0.70904E-05   -0.19895E-05  2845   0.616E-03
  75 F= -.23193408E+04 E0= -.23193408E+04  d E =-.127839E-02  mag=     1.0000
       N       E                     dE             d eps       ncg     rms          rms(c)
DAV:   1    -0.229941300077E+04    0.83118E-04   -0.15441E-01  4444   0.307E-01    0.917E-02
RMM:   2    -0.229941328515E+04   -0.28438E-03   -0.36077E-03  5090   0.459E-02    0.541E-02
RMM:   3    -0.229941324848E+04    0.36665E-04   -0.25701E-04  3845   0.179E-02    0.316E-02
RMM:   4    -0.229941324474E+04    0.37395E-05   -0.13420E-04  3720   0.730E-03    0.146E-02
RMM:   5    -0.229941324043E+04    0.43138E-05   -0.10500E-05  2816   0.481E-03
  76 F= -.23193410E+04 E0= -.23193410E+04  d E =-.151708E-02  mag=     1.0000
       N       E                     dE             d eps       ncg     rms          rms(c)
DAV:   1    -0.229941379086E+04   -0.54612E-03   -0.11463E-01  4380   0.262E-01    0.763E-02
RMM:   2    -0.229941401113E+04   -0.22026E-03   -0.27911E-03  5220   0.400E-02    0.445E-02
RMM:   3    -0.229941398854E+04    0.22587E-04   -0.17619E-04  3608   0.156E-02    0.263E-02
RMM:   4    -0.229941398344E+04    0.50963E-05   -0.87014E-05  3304   0.622E-03
  77 F= -.23193418E+04 E0= -.23193418E+04  d E =-.774083E-03  mag=     1.0000
       N       E                     dE             d eps       ncg     rms          rms(c)
DAV:   1    -0.229941383847E+04    0.15007E-03   -0.35508E-01  4360   0.461E-01    0.132E-01
RMM:   2    -0.229941453716E+04   -0.69869E-03   -0.86785E-03  5431   0.713E-02    0.765E-02
RMM:   3    -0.229941446846E+04    0.68699E-04   -0.53118E-04  4669   0.245E-02    0.459E-02
RMM:   4    -0.229941445085E+04    0.17606E-04   -0.24786E-04  4028   0.995E-03    0.147E-02
RMM:   5    -0.229941444901E+04    0.18467E-05   -0.13624E-05  2808   0.589E-03
  78 F= -.23193423E+04 E0= -.23193423E+04  d E =-.129516E-02  mag=     1.0000
       N       E                     dE             d eps       ncg     rms          rms(c)
DAV:   1    -0.229941501355E+04   -0.56270E-03   -0.75938E-02  4496   0.225E-01    0.699E-02
RMM:   2    -0.229941517922E+04   -0.16567E-03   -0.20009E-03  5299   0.352E-02    0.347E-02
RMM:   3    -0.229941516446E+04    0.14763E-04   -0.13017E-04  3401   0.139E-02    0.213E-02
RMM:   4    -0.229941516079E+04    0.36668E-05   -0.55224E-05  3048   0.546E-03
  79 F= -.23193431E+04 E0= -.23193431E+04  d E =-.724618E-03  mag=     1.0000
       N       E                     dE             d eps       ncg     rms          rms(c)
DAV:   1    -0.229941488945E+04    0.27501E-03   -0.68073E-01  4360   0.674E-01    0.208E-01
RMM:   2    -0.229941634874E+04   -0.14593E-02   -0.17801E-02  5297   0.105E-01    0.102E-01
RMM:   3    -0.229941621083E+04    0.13790E-03   -0.12096E-03  4626   0.419E-02    0.617E-02
RMM:   4    -0.229941617200E+04    0.38837E-04   -0.50818E-04  4430   0.150E-02    0.229E-02
RMM:   5    -0.229941616490E+04    0.70984E-05   -0.43897E-05  2985   0.928E-03
  80 F= -.23193441E+04 E0= -.23193441E+04  d E =-.176781E-02  mag=     1.0000
       N       E                     dE             d eps       ncg     rms          rms(c)
DAV:   1    -0.229941666562E+04   -0.49362E-03   -0.97915E-02  4456   0.250E-01    0.771E-02
RMM:   2    -0.229941691431E+04   -0.24870E-03   -0.30154E-03  5457   0.395E-02    0.445E-02
RMM:   3    -0.229941689413E+04    0.20184E-04   -0.21873E-04  3437   0.148E-02    0.269E-02
RMM:   4    -0.229941689033E+04    0.37977E-05   -0.83160E-05  3072   0.598E-03
  81 F= -.23193449E+04 E0= -.23193449E+04  d E =-.778213E-03  mag=     1.0000
       N       E                     dE             d eps       ncg     rms          rms(c)
DAV:   1    -0.229941678882E+04    0.10531E-03   -0.14922E-01  4360   0.308E-01    0.951E-02
RMM:   2    -0.229941716852E+04   -0.37970E-03   -0.45982E-03  5717   0.498E-02    0.543E-02
RMM:   3    -0.229941713657E+04    0.31950E-04   -0.32285E-04  3839   0.178E-02    0.329E-02
RMM:   4    -0.229941712757E+04    0.90002E-05   -0.11943E-04  3434   0.709E-03    0.121E-02
RMM:   5    -0.229941712643E+04    0.11365E-05   -0.97058E-06  2820   0.449E-03
  82 F= -.23193452E+04 E0= -.23193452E+04  d E =-.107986E-02  mag=     1.0000
       N       E                     dE             d eps       ncg     rms          rms(c)
DAV:   1    -0.229941743397E+04   -0.30640E-03   -0.36693E-02  4560   0.156E-01    0.475E-02
RMM:   2    -0.229941753266E+04   -0.98690E-04   -0.11857E-03  5530   0.252E-02    0.259E-02
RMM:   3    -0.229941752591E+04    0.67485E-05   -0.73524E-05  2938   0.101E-02
  83 F= -.23193456E+04 E0= -.23193456E+04  d E =-.419623E-03  mag=     1.0000
       N       E                     dE             d eps       ncg     rms          rms(c)
DAV:   1    -0.229941722132E+04    0.31133E-03   -0.32834E-01  4360   0.466E-01    0.141E-01
RMM:   2    -0.229941807996E+04   -0.85863E-03   -0.10384E-02  5510   0.744E-02    0.759E-02
RMM:   3    -0.229941801775E+04    0.62206E-04   -0.66832E-04  4444   0.251E-02    0.461E-02
RMM:   4    -0.229941799798E+04    0.19770E-04   -0.26698E-04  4009   0.105E-02    0.165E-02
RMM:   5    -0.229941799720E+04    0.78153E-06   -0.19639E-05  2813   0.644E-03
  84 F= -.23193461E+04 E0= -.23193461E+04  d E =-.951404E-03  mag=     1.0000
       N       E                     dE             d eps       ncg     rms          rms(c)
DAV:   1    -0.229941835938E+04   -0.36140E-03   -0.16537E-02  4624   0.113E-01    0.377E-02
RMM:   2    -0.229941840830E+04   -0.48913E-04   -0.58184E-04  5264   0.190E-02    0.179E-02
RMM:   3    -0.229941840396E+04    0.43325E-05   -0.32137E-05  2825   0.758E-03
  85 F= -.23193466E+04 E0= -.23193465E+04  d E =-.407537E-03  mag=     1.0000
       N       E                     dE             d eps       ncg     rms          rms(c)
DAV:   1    -0.229941868182E+04   -0.27352E-03   -0.14713E-01  4360   0.337E-01    0.112E-01
RMM:   2    -0.229941908710E+04   -0.40528E-03   -0.50279E-03  5295   0.545E-02    0.527E-02
RMM:   3    -0.229941904344E+04    0.43663E-04   -0.28485E-04  4172   0.204E-02    0.313E-02
RMM:   4    -0.229941903048E+04    0.12958E-04   -0.12911E-04  3944   0.822E-03    0.120E-02
RMM:   5    -0.229941902954E+04    0.93538E-06   -0.10313E-05  2802   0.568E-03
  86 F= -.23193472E+04 E0= -.23193472E+04  d E =-.103545E-02  mag=     1.0000
       N       E                     dE             d eps       ncg     rms          rms(c)
DAV:   1    -0.229941941811E+04   -0.38763E-03   -0.42888E-02  4364   0.174E-01    0.579E-02
RMM:   2    -0.229941951350E+04   -0.95390E-04   -0.14289E-03  5311   0.279E-02    0.350E-02
RMM:   3    -0.229941949574E+04    0.17755E-04   -0.11998E-04  3068   0.117E-02    0.198E-02
RMM:   4    -0.229941949441E+04    0.13302E-05   -0.54762E-05  2855   0.470E-03
  87 F= -.23193477E+04 E0= -.23193477E+04  d E =-.478155E-03  mag=     1.0000
       N       E                     dE             d eps       ncg     rms          rms(c)
DAV:   1    -0.229941951542E+04   -0.19676E-04   -0.70114E-03  4640   0.706E-02    0.246E-02
RMM:   2    -0.229941953221E+04   -0.16792E-04   -0.24113E-04  4559   0.127E-02    0.146E-02
RMM:   3    -0.229941952966E+04    0.25494E-05   -0.19194E-05  2792   0.554E-03
  88 F= -.23193477E+04 E0= -.23193477E+04  d E =-.518819E-03  mag=     1.0000
       N       E                     dE             d eps       ncg     rms          rms(c)
DAV:   1    -0.229941982431E+04   -0.29210E-03   -0.34801E-02  4364   0.172E-01    0.466E-02
RMM:   2    -0.229941991835E+04   -0.94037E-04   -0.11065E-03  5391   0.265E-02    0.237E-02
RMM:   3    -0.229941991016E+04    0.81847E-05   -0.61947E-05  3041   0.986E-03
  89 F= -.23193481E+04 E0= -.23193481E+04  d E =-.379100E-03  mag=     1.0000
       N       E                     dE             d eps       ncg     rms          rms(c)
DAV:   1    -0.229941962618E+04    0.29216E-03   -0.31287E-01  4360   0.515E-01    0.138E-01
RMM:   2    -0.229942046263E+04   -0.83645E-03   -0.98474E-03  5129   0.774E-02    0.699E-02
RMM:   3    -0.229942039097E+04    0.71667E-04   -0.58885E-04  4438   0.303E-02    0.432E-02
RMM:   4    -0.229942036768E+04    0.23288E-04   -0.24679E-04  4152   0.116E-02    0.149E-02
RMM:   5    -0.229942036612E+04    0.15641E-05   -0.16838E-05  2818   0.752E-03
  90 F= -.23193485E+04 E0= -.23193485E+04  d E =-.830709E-03  mag=     1.0000
       N       E                     dE             d eps       ncg     rms          rms(c)
DAV:   1    -0.229942067904E+04   -0.31136E-03   -0.55982E-02  4384   0.211E-01    0.547E-02
RMM:   2    -0.229942082283E+04   -0.14378E-03   -0.17579E-03  5251   0.324E-02    0.313E-02
RMM:   3    -0.229942081143E+04    0.11400E-04   -0.12544E-04  3241   0.128E-02    0.194E-02
RMM:   4    -0.229942080791E+04    0.35165E-05   -0.47446E-05  2857   0.485E-03
  91 F= -.23193490E+04 E0= -.23193490E+04  d E =-.441434E-03  mag=     1.0000
       N       E                     dE             d eps       ncg     rms          rms(c)
DAV:   1    -0.229942079081E+04    0.20615E-04   -0.87024E-02  4360   0.263E-01    0.680E-02
RMM:   2    -0.229942101446E+04   -0.22365E-03   -0.27291E-03  5548   0.406E-02    0.389E-02
RMM:   3    -0.229942099644E+04    0.18017E-04   -0.19288E-04  3620   0.151E-02    0.239E-02
RMM:   4    -0.229942098987E+04    0.65767E-05   -0.65198E-05  3042   0.575E-03
  92 F= -.23193492E+04 E0= -.23193491E+04  d E =-.622842E-03  mag=     1.0000
       N       E                     dE             d eps       ncg     rms          rms(c)
DAV:   1    -0.229942126808E+04   -0.27163E-03   -0.32321E-02  4408   0.162E-01    0.416E-02
RMM:   2    -0.229942135347E+04   -0.85397E-04   -0.10173E-03  5640   0.263E-02    0.235E-02
RMM:   3    -0.229942134730E+04    0.61717E-05   -0.63365E-05  2956   0.906E-03
  93 F= -.23193495E+04 E0= -.23193495E+04  d E =-.366691E-03  mag=     1.0000
       N       E                     dE             d eps       ncg     rms          rms(c)
DAV:   1    -0.229942112108E+04    0.23239E-03   -0.29045E-01  4360   0.485E-01    0.121E-01
RMM:   2    -0.229942185426E+04   -0.73318E-03   -0.87820E-03  5257   0.726E-02    0.669E-02
RMM:   3    -0.229942179910E+04    0.55167E-04   -0.61196E-04  4358   0.288E-02    0.416E-02
RMM:   4    -0.229942178232E+04    0.16771E-04   -0.21718E-04  4130   0.103E-02    0.169E-02
RMM:   5    -0.229942177774E+04    0.45829E-05   -0.21121E-05  2848   0.691E-03
  94 F= -.23193500E+04 E0= -.23193500E+04  d E =-.825037E-03  mag=     1.0000
       N       E                     dE             d eps       ncg     rms          rms(c)
DAV:   1    -0.229942203550E+04   -0.25318E-03   -0.22150E-02  4592   0.137E-01    0.377E-02
RMM:   2    -0.229942209652E+04   -0.61016E-04   -0.69219E-04  5204   0.213E-02    0.188E-02
RMM:   3    -0.229942209179E+04    0.47332E-05   -0.41760E-05  2838   0.899E-03
  95 F= -.23193503E+04 E0= -.23193503E+04  d E =-.310890E-03  mag=     1.0000
       N       E                     dE             d eps       ncg     rms          rms(c)
DAV:   1    -0.229942219155E+04   -0.95028E-04   -0.19771E-01  4360   0.409E-01    0.112E-01
RMM:   2    -0.229942270536E+04   -0.51382E-03   -0.59854E-03  5225   0.616E-02    0.539E-02
RMM:   3    -0.229942266043E+04    0.44932E-04   -0.35971E-04  4207   0.235E-02    0.327E-02
RMM:   4    -0.229942264720E+04    0.13229E-04   -0.15335E-04  4037   0.903E-03    0.121E-02
RMM:   5    -0.229942264524E+04    0.19636E-05   -0.11500E-05  2805   0.603E-03
  96 F= -.23193508E+04 E0= -.23193508E+04  d E =-.854857E-03  mag=     1.0000
       N       E                     dE             d eps       ncg     rms          rms(c)
DAV:   1    -0.229942261583E+04    0.31369E-04   -0.35475E-02  4380   0.174E-01    0.478E-02
RMM:   2    -0.229942271187E+04   -0.96035E-04   -0.11068E-03  5147   0.268E-02    0.239E-02
RMM:   3    -0.229942270258E+04    0.92894E-05   -0.63277E-05  3050   0.111E-02
  97 F= -.23193509E+04 E0= -.23193509E+04  d E =-.908193E-03  mag=     1.0000
       N       E                     dE             d eps       ncg     rms          rms(c)
DAV:   1    -0.229942299140E+04   -0.27954E-03   -0.48121E-02  4360   0.191E-01    0.526E-02
[...]
RMM:   4    -0.229943093904E+04    0.54078E-04   -0.91156E-04  4460   0.164E-02    0.258E-02
RMM:   5    -0.229943093178E+04    0.72534E-05   -0.46700E-05  2877   0.947E-03
 122 F= -.23193585E+04 E0= -.23193585E+04  d E =-.934696E-03  mag=     1.0000
       N       E                     dE             d eps       ncg     rms          rms(c)
DAV:   1    -0.229943060503E+04    0.33400E-03   -0.30189E-01  4360   0.394E-01    0.115E-01
RMM:   2    -0.229943112910E+04   -0.52407E-03   -0.69104E-03  5555   0.604E-02    0.653E-02
RMM:   3    -0.229943108400E+04    0.45102E-04   -0.48853E-04  4041   0.218E-02    0.378E-02
RMM:   4    -0.229943107306E+04    0.10937E-04   -0.17761E-04  3645   0.789E-03    0.130E-02
RMM:   5    -0.229943107242E+04    0.63707E-06   -0.13144E-05  2811   0.495E-03
 123 F= -.23193587E+04 E0= -.23193587E+04  d E =-.109698E-02  mag=     1.0000
       N       E                     dE             d eps       ncg     rms          rms(c)
DAV:   1    -0.229943148947E+04   -0.41641E-03   -0.16710E-01  4360   0.286E-01    0.889E-02
RMM:   2    -0.229943183808E+04   -0.34861E-03   -0.43984E-03  5596   0.460E-02    0.494E-02
RMM:   3    -0.229943181051E+04    0.27566E-04   -0.26034E-04  3535   0.148E-02    0.290E-02
RMM:   4    -0.229943180290E+04    0.76168E-05   -0.10529E-04  3082   0.611E-03    0.953E-03
RMM:   5    -0.229943180282E+04    0.81185E-07   -0.66767E-06  2776   0.392E-03
 124 F= -.23193594E+04 E0= -.23193594E+04  d E =-.750640E-03  mag=     1.0000
       N       E                     dE             d eps       ncg     rms          rms(c)
DAV:   1    -0.229942997494E+04    0.18280E-02   -0.15046E+00  4360   0.858E-01    0.272E-01
RMM:   2    -0.229943313782E+04   -0.31629E-02   -0.39638E-02  5618   0.138E-01    0.152E-01
RMM:   3    -0.229943294864E+04    0.18918E-03   -0.27104E-03  4837   0.453E-02    0.883E-02
RMM:   4    -0.229943289253E+04    0.56113E-04   -0.94887E-04  4567   0.166E-02    0.280E-02
RMM:   5    -0.229943288865E+04    0.38754E-05   -0.60646E-05  2894   0.989E-03
 125 F= -.23193606E+04 E0= -.23193606E+04  d E =-.189759E-02  mag=     1.0000
       N       E                     dE             d eps       ncg     rms          rms(c)
DAV:   1    -0.229943323038E+04   -0.33785E-03   -0.16836E-01  4360   0.280E-01    0.973E-02
RMM:   2    -0.229943373173E+04   -0.50135E-03   -0.59448E-03  5722   0.486E-02    0.558E-02
RMM:   3    -0.229943371558E+04    0.16146E-04   -0.38485E-04  3458   0.146E-02    0.336E-02
RMM:   4    -0.229943371124E+04    0.43363E-05   -0.11947E-04  3049   0.632E-03    0.134E-02
RMM:   5    -0.229943371119E+04    0.58484E-07   -0.10143E-05  2796   0.431E-03
 126 F= -.23193615E+04 E0= -.23193615E+04  d E =-.892334E-03  mag=     1.0000
       N       E                     dE             d eps       ncg     rms          rms(c)
DAV:   1    -0.229943037648E+04    0.33348E-02   -0.15116E+00  4360   0.840E-01    0.288E-01
RMM:   2    -0.229943480186E+04   -0.44254E-02   -0.53234E-02  5813   0.144E-01    0.162E-01
RMM:   3    -0.229943464261E+04    0.15925E-03   -0.34233E-03  5060   0.432E-02    0.976E-02
RMM:   4    -0.229943457637E+04    0.66237E-04   -0.10862E-03  4630   0.168E-02    0.359E-02
RMM:   5    -0.229943457033E+04    0.60437E-05   -0.70870E-05  2967   0.100E-02
 127 F= -.23193625E+04 E0= -.23193625E+04  d E =-.196005E-02  mag=     1.0000
       N       E                     dE             d eps       ncg     rms          rms(c)
DAV:   1    -0.229943478244E+04   -0.20607E-03   -0.81281E-02  4560   0.185E-01    0.650E-02
RMM:   2    -0.229943505452E+04   -0.27208E-03   -0.31428E-03  5900   0.327E-02    0.407E-02
RMM:   3    -0.229943505008E+04    0.44418E-05   -0.21864E-04  2938   0.962E-03    0.256E-02
RMM:   4    -0.229943504765E+04    0.24301E-05   -0.70879E-05  2867   0.445E-03
 128 F= -.23193630E+04 E0= -.23193630E+04  d E =-.495385E-03  mag=     1.0000
       N       E                     dE             d eps       ncg     rms          rms(c)
DAV:   1    -0.229943364258E+04    0.14075E-02   -0.72980E-01  4360   0.552E-01    0.191E-01
RMM:   2    -0.229943595970E+04   -0.23171E-02   -0.27459E-02  5997   0.949E-02    0.117E-01
RMM:   3    -0.229943592085E+04    0.38847E-04   -0.20166E-03  4528   0.305E-02    0.721E-02
RMM:   4    -0.229943589319E+04    0.27659E-04   -0.63323E-04  4133   0.115E-02    0.307E-02
RMM:   5    -0.229943588680E+04    0.63903E-05   -0.52974E-05  2879   0.646E-03
 129 F= -.23193639E+04 E0= -.23193639E+04  d E =-.138801E-02  mag=     1.0000
       N       E                     dE             d eps       ncg     rms          rms(c)
DAV:   1    -0.229942608963E+04    0.98036E-02   -0.29267E+00  4360   0.111E+00    0.382E-01
RMM:   2    -0.229943527390E+04   -0.91843E-02   -0.10934E-01  5923   0.189E-01    0.234E-01
RMM:   3    -0.229943500281E+04    0.27110E-03   -0.70107E-03  5101   0.580E-02    0.141E-01
RMM:   4    -0.229943486144E+04    0.14137E-03   -0.23487E-03  4682   0.212E-02    0.479E-02
RMM:   5    -0.229943486638E+04   -0.49363E-05   -0.15752E-04  3108   0.125E-02    0.326E-02
RMM:   6    -0.229943486481E+04    0.15627E-05   -0.46675E-05  2838   0.375E-03
 130 F= -.23193630E+04 E0= -.23193630E+04  d E =-.469554E-03  mag=     1.0000
       N       E                     dE             d eps       ncg     rms          rms(c)
DAV:   1    -0.229943127946E+04    0.35869E-02   -0.16269E+00  4360   0.825E-01    0.284E-01
RMM:   2    -0.229943615217E+04   -0.48727E-02   -0.59481E-02  5962   0.142E-01    0.170E-01
RMM:   3    -0.229943602539E+04    0.12678E-03   -0.44393E-03  5001   0.410E-02    0.103E-01
RMM:   4    -0.229943597436E+04    0.51028E-04   -0.12946E-03  4449   0.160E-02    0.440E-02
RMM:   5    -0.229943595870E+04    0.15667E-04   -0.10452E-04  3009   0.879E-03    0.260E-02
RMM:   6    -0.229943595738E+04    0.13124E-05   -0.20939E-05  2806   0.322E-03
 131 F= -.23193640E+04 E0= -.23193640E+04  d E =-.148531E-02  mag=     1.0000
       N       E                     dE             d eps       ncg     rms          rms(c)
DAV:   1    -0.229943632053E+04   -0.36183E-03   -0.23493E-01  4360   0.309E-01    0.111E-01
RMM:   2    -0.229943704586E+04   -0.72533E-03   -0.87753E-03  6043   0.551E-02    0.627E-02
RMM:   3    -0.229943703396E+04    0.11901E-04   -0.61208E-04  3588   0.162E-02    0.382E-02
RMM:   4    -0.229943702405E+04    0.99100E-05   -0.16942E-04  3006   0.643E-03    0.147E-02
RMM:   5    -0.229943702458E+04   -0.52554E-06   -0.12500E-05  2795   0.405E-03
 132 F= -.23193651E+04 E0= -.23193651E+04  d E =-.106068E-02  mag=     1.0000
       N       E                     dE             d eps       ncg     rms          rms(c)
DAV:   1    -0.229943268729E+04    0.43368E-02   -0.21152E+00  4360   0.926E-01    0.333E-01
RMM:   2    -0.229943943179E+04   -0.67445E-02   -0.80890E-02  6083   0.164E-01    0.192E-01
RMM:   3    -0.229943933577E+04    0.96025E-04   -0.54859E-03  5176   0.474E-02    0.116E-01
RMM:   4    -0.229943925237E+04    0.83399E-04   -0.14823E-03  4602   0.171E-02    0.417E-02
RMM:   5    -0.229943925110E+04    0.12672E-05   -0.10136E-04  2988   0.104E-02    0.191E-02
RMM:   6    -0.229943925158E+04   -0.48056E-06   -0.28218E-05  2838   0.349E-03
 133 F= -.23193673E+04 E0= -.23193673E+04  d E =-.326650E-02  mag=     1.0000
       N       E                     dE             d eps       ncg     rms          rms(c)
DAV:   1    -0.229941115498E+04    0.28096E-01   -0.84472E+00  4360   0.185E+00    0.661E-01
RMM:   2    -0.229943998816E+04   -0.28833E-01   -0.34072E-01  5990   0.325E-01    0.391E-01
RMM:   3    -0.229943952710E+04    0.46106E-03   -0.21813E-02  5318   0.995E-02    0.242E-01
RMM:   4    -0.229943913235E+04    0.39475E-03   -0.57392E-03  4861   0.333E-02    0.107E-01
RMM:   5    -0.229943907415E+04    0.58195E-04   -0.73638E-04  4565   0.211E-02    0.409E-02
RMM:   6    -0.229943907609E+04   -0.19426E-05   -0.10999E-04  3044   0.588E-03    0.319E-02
RMM:   7    -0.229943907973E+04   -0.36333E-05   -0.18471E-05  2824   0.397E-03
 134 F= -.23193671E+04 E0= -.23193671E+04  d E =-.304471E-02  mag=     1.0000
       N       E                     dE             d eps       ncg     rms          rms(c)
DAV:   1    -0.229943150407E+04    0.75720E-02   -0.26201E+00  4360   0.103E+00    0.364E-01
RMM:   2    -0.229944022124E+04   -0.87172E-02   -0.10387E-01  5995   0.183E-01    0.212E-01
RMM:   3    -0.229944008205E+04    0.13919E-03   -0.69886E-03  5267   0.516E-02    0.134E-01
RMM:   4    -0.229943998005E+04    0.10199E-03   -0.21341E-03  4724   0.210E-02    0.591E-02
RMM:   5    -0.229943996011E+04    0.19945E-04   -0.18894E-04  3323   0.115E-02    0.297E-02
RMM:   6    -0.229943995489E+04    0.52199E-05   -0.33547E-05  2828   0.348E-03
 135 F= -.23193680E+04 E0= -.23193680E+04  d E =-.394898E-02  mag=     1.0000
       N       E                     dE             d eps       ncg     rms          rms(c)
DAV:   1    -0.229943911214E+04    0.84797E-03   -0.87062E-01  4360   0.547E-01    0.205E-01
RMM:   2    -0.229944203348E+04   -0.29213E-02   -0.34870E-02  6146   0.990E-02    0.123E-01
RMM:   3    -0.229944199786E+04    0.35617E-04   -0.23058E-03  4687   0.272E-02    0.756E-02
RMM:   4    -0.229944195684E+04    0.41027E-04   -0.68673E-04  3944   0.107E-02    0.237E-02
RMM:   5    -0.229944195728E+04   -0.44378E-06   -0.41247E-05  2811   0.633E-03
 136 F= -.23193700E+04 E0= -.23193700E+04  d E =-.197585E-02  mag=     1.0000
       N       E                     dE             d eps       ncg     rms          rms(c)
DAV:   1    -0.229941838261E+04    0.23574E-01   -0.78346E+00  4360   0.164E+00    0.620E-01
RMM:   2    -0.229944585566E+04   -0.27473E-01   -0.32445E-01  6164   0.296E-01    0.379E-01
RMM:   3    -0.229944559188E+04    0.26379E-03   -0.20785E-02  5489   0.830E-02    0.235E-01
RMM:   4    -0.229944527095E+04    0.32093E-03   -0.54223E-03  4885   0.293E-02    0.997E-02
RMM:   5    -0.229944522946E+04    0.41488E-04   -0.64114E-04  4306   0.172E-02    0.390E-02
RMM:   6    -0.229944522647E+04    0.29929E-05   -0.91193E-05  2914   0.523E-03
 137 F= -.23193731E+04 E0= -.23193731E+04  d E =-.515962E-02  mag=     1.0000
       N       E                     dE             d eps       ncg     rms          rms(c)
DAV:   1    -0.229944391591E+04    0.13135E-02   -0.12458E+00  4360   0.631E-01    0.250E-01
RMM:   2    -0.229944812572E+04   -0.42098E-02   -0.49472E-02  6130   0.115E-01    0.154E-01
RMM:   3    -0.229944807842E+04    0.47307E-04   -0.34155E-03  4900   0.338E-02    0.940E-02
RMM:   4    -0.229944804390E+04    0.34515E-04   -0.10750E-03  4229   0.128E-02    0.392E-02
RMM:   5    -0.229944803393E+04    0.99716E-05   -0.68694E-05  2872   0.706E-03
 138 F= -.23193760E+04 E0= -.23193760E+04  d E =-.282342E-02  mag=     1.0000
       N       E                     dE             d eps       ncg     rms          rms(c)
DAV:   1    -0.229943931714E+04    0.87268E-02   -0.31912E+00  4360   0.101E+00    0.399E-01
RMM:   2    -0.229945007719E+04   -0.10760E-01   -0.12757E-01  6157   0.182E-01    0.249E-01
RMM:   3    -0.229944986668E+04    0.21051E-03   -0.82675E-03  5254   0.537E-02    0.151E-01
RMM:   4    -0.229944972424E+04    0.14244E-03   -0.26862E-03  4675   0.196E-02    0.495E-02
RMM:   5    -0.229944972380E+04    0.43539E-06   -0.16211E-04  2972   0.115E-02    0.320E-02
RMM:   6    -0.229944971966E+04    0.41423E-05   -0.53829E-05  2846   0.373E-03
 139 F= -.23193777E+04 E0= -.23193777E+04  d E =-.452929E-02  mag=     1.0000
       N       E                     dE             d eps       ncg     rms          rms(c)
DAV:   1    -0.229944948355E+04    0.24025E-03   -0.62760E-01  4400   0.445E-01    0.180E-01
RMM:   2    -0.229945143669E+04   -0.19531E-02   -0.23505E-02  6178   0.808E-02    0.105E-01
RMM:   3    -0.229945141061E+04    0.26089E-04   -0.15499E-03  4191   0.232E-02    0.625E-02
RMM:   4    -0.229945139484E+04    0.15766E-04   -0.43966E-04  3355   0.880E-03    0.234E-02
RMM:   5    -0.229945139522E+04   -0.37630E-06   -0.29403E-05  2810   0.537E-03
 140 F= -.23193794E+04 E0= -.23193794E+04  d E =-.172459E-02  mag=     1.0000
       N       E                     dE             d eps       ncg     rms          rms(c)
DAV:   1    -0.229943808973E+04    0.13305E-01   -0.56356E+00  4360   0.133E+00    0.532E-01
RMM:   2    -0.229945581295E+04   -0.17723E-01   -0.21393E-01  6237   0.240E-01    0.315E-01
RMM:   3    -0.229945558114E+04    0.23181E-03   -0.14426E-02  5477   0.675E-02    0.187E-01
RMM:   4    -0.229945541050E+04    0.17064E-03   -0.37137E-03  4779   0.236E-02    0.707E-02
RMM:   5    -0.229945541497E+04   -0.44633E-05   -0.32105E-04  3396   0.136E-02    0.322E-02
RMM:   6    -0.229945541535E+04   -0.38455E-06   -0.60364E-05  2845   0.459E-03
 141 F= -.23193835E+04 E0= -.23193835E+04  d E =-.588359E-02  mag=     1.0000
       N       E                     dE             d eps       ncg     rms          rms(c)
DAV:   1    -0.229938249361E+04    0.72921E-01   -0.22451E+01  4360   0.266E+00    0.105E+00
RMM:   2    -0.229946059195E+04   -0.78098E-01   -0.92230E-01  6206   0.478E-01    0.649E-01
RMM:   3    -0.229945983725E+04    0.75471E-03   -0.65404E-02  5630   0.143E-01    0.408E-01
RMM:   4    -0.229945872528E+04    0.11120E-02   -0.14791E-02  5409   0.471E-02    0.194E-01
RMM:   5    -0.229945857054E+04    0.15474E-03   -0.26136E-03  4964   0.267E-02    0.693E-02
RMM:   6    -0.229945859247E+04   -0.21923E-04   -0.31624E-04  3232   0.993E-03    0.595E-02
RMM:   7    -0.229945859100E+04    0.14708E-05   -0.74331E-05  2862   0.525E-03
 142 F= -.23193870E+04 E0= -.23193870E+04  d E =-.929832E-02  mag=     1.0000
       N       E                     dE             d eps       ncg     rms          rms(c)
DAV:   1    -0.229945287960E+04    0.57129E-02   -0.33896E+00  4368   0.100E+00    0.405E-01
RMM:   2    -0.229946382064E+04   -0.10941E-01   -0.13013E-01  6244   0.180E-01    0.245E-01
RMM:   3    -0.229946374480E+04    0.75836E-04   -0.88208E-03  5456   0.518E-02    0.149E-01
RMM:   4    -0.229946365035E+04    0.94448E-04   -0.22000E-03  4496   0.172E-02    0.580E-02
RMM:   5    -0.229946364448E+04    0.58743E-05   -0.21957E-04  3037   0.103E-02    0.200E-02
RMM:   6    -0.229946365161E+04   -0.71345E-05   -0.33719E-05  2816   0.397E-03
 143 F= -.23193921E+04 E0= -.23193920E+04  d E =-.508665E-02  mag=     1.0000
       N       E                     dE             d eps       ncg     rms          rms(c)
DAV:   1    -0.229936529717E+04    0.98347E-01   -0.30242E+01  4360   0.298E+00    0.121E+00
RMM:   2    -0.229947469011E+04   -0.10939E+00   -0.12882E+00  6247   0.532E-01    0.747E-01
RMM:   3    -0.229947236482E+04    0.23253E-02   -0.76419E-02  5652   0.150E-01    0.471E-01
RMM:   4    -0.229947081201E+04    0.15528E-02   -0.18322E-02  5295   0.504E-02    0.222E-01
RMM:   5    -0.229947055433E+04    0.25768E-03   -0.32232E-03  5103   0.291E-02    0.774E-02
RMM:   6    -0.229947057790E+04   -0.23570E-04   -0.32628E-04  3345   0.996E-03    0.623E-02
RMM:   7    -0.229947058686E+04   -0.89626E-05   -0.87075E-05  2857   0.576E-03
 144 F= -.23193990E+04 E0= -.23193990E+04  d E =-.120473E-01  mag=     1.0000
       N       E                     dE             d eps       ncg     rms          rms(c)
DAV:   1    -0.229946660816E+04    0.39697E-02   -0.29691E+00  4368   0.905E-01    0.367E-01
RMM:   2    -0.229947655156E+04   -0.99434E-02   -0.11457E-01  6215   0.161E-01    0.232E-01
RMM:   3    -0.229947642181E+04    0.12975E-03   -0.71624E-03  5286   0.475E-02    0.144E-01
RMM:   4    -0.229947629198E+04    0.12983E-03   -0.20333E-03  4491   0.167E-02    0.495E-02
RMM:   5    -0.229947630217E+04   -0.10197E-04   -0.16238E-04  2933   0.100E-02    0.252E-02
RMM:   6    -0.229947630560E+04   -0.34256E-05   -0.35212E-05  2821   0.364E-03
 145 F= -.23194046E+04 E0= -.23194046E+04  d E =-.562058E-02  mag=     1.0000
       N       E                     dE             d eps       ncg     rms          rms(c)
DAV:   1    -0.229939664040E+04    0.79662E-01   -0.26584E+01  4360   0.271E+00    0.111E+00
RMM:   2    -0.229949082528E+04   -0.94185E-01   -0.10917E+00  6211   0.485E-01    0.713E-01
RMM:   3    -0.229948879259E+04    0.20327E-02   -0.69488E-02  5558   0.145E-01    0.455E-01
RMM:   4    -0.229948704952E+04    0.17431E-02   -0.17483E-02  5380   0.497E-02    0.207E-01
RMM:   5    -0.229948700477E+04    0.44756E-04   -0.32820E-03  5036   0.279E-02    0.916E-02
RMM:   6    -0.229948698286E+04    0.21906E-04   -0.34500E-04  3274   0.103E-02    0.783E-02
RMM:   7    -0.229948694659E+04    0.36276E-04   -0.18772E-04  2966   0.633E-03    0.512E-02
RMM:   8    -0.229948692538E+04    0.21206E-04   -0.94978E-05  2863   0.515E-03    0.213E-02
RMM:   9    -0.229948693060E+04   -0.52246E-05   -0.32698E-05  2827   0.365E-03
 146 F= -.23194149E+04 E0= -.23194149E+04  d E =-.158947E-01  mag=     1.0000
       N       E                     dE             d eps       ncg     rms          rms(c)
DAV:   1    -0.229946951149E+04    0.17414E-01   -0.60542E+00  4368   0.128E+00    0.519E-01
RMM:   2    -0.229948920129E+04   -0.19690E-01   -0.23044E-01  6191   0.230E-01    0.330E-01
RMM:   3    -0.229948873314E+04    0.46816E-03   -0.13955E-02  5413   0.676E-02    0.202E-01
RMM:   4    -0.229948841494E+04    0.31820E-03   -0.42705E-03  4777   0.240E-02    0.693E-02
RMM:   5    -0.229948843109E+04   -0.16152E-04   -0.31699E-04  3360   0.139E-02    0.376E-02
RMM:   6    -0.229948843018E+04    0.91078E-06   -0.79467E-05  2839   0.450E-03
 147 F= -.23194162E+04 E0= -.23194162E+04  d E =-.171975E-01  mag=     1.0000
       N       E                     dE             d eps       ncg     rms          rms(c)
DAV:   1    -0.229948585262E+04    0.25785E-02   -0.34931E+00  4368   0.960E-01    0.398E-01
RMM:   2    -0.229949599582E+04   -0.10143E-01   -0.11984E-01  6115   0.171E-01    0.247E-01
RMM:   3    -0.229949572220E+04    0.27362E-03   -0.71284E-03  5235   0.519E-02    0.148E-01
RMM:   4    -0.229949560122E+04    0.12099E-03   -0.22951E-03  4685   0.187E-02    0.482E-02
RMM:   5    -0.229949559918E+04    0.20428E-05   -0.13060E-04  2919   0.106E-02    0.248E-02
RMM:   6    -0.229949560117E+04   -0.19994E-05   -0.34880E-05  2821   0.341E-03
 148 F= -.23194233E+04 E0= -.23194233E+04  d E =-.705092E-02  mag=     1.0000
       N       E                     dE             d eps       ncg     rms          rms(c)
DAV:   1    -0.229941531918E+04    0.80280E-01   -0.31240E+01  4360   0.288E+00    0.120E+00
RMM:   2    -0.229951344431E+04   -0.98125E-01   -0.11571E+00  6154   0.515E-01    0.755E-01
RMM:   3    -0.229951052311E+04    0.29212E-02   -0.72356E-02  5471   0.156E-01    0.472E-01
RMM:   4    -0.229950857935E+04    0.19438E-02   -0.19088E-02  5395   0.557E-02    0.204E-01
RMM:   5    -0.229950855171E+04    0.27637E-04   -0.34636E-03  5065   0.303E-02    0.917E-02
RMM:   6    -0.229950850552E+04    0.46196E-04   -0.38994E-04  3384   0.103E-02    0.764E-02
RMM:   7    -0.229950846575E+04    0.39767E-04   -0.20934E-04  3007   0.692E-03    0.471E-02
RMM:   8    -0.229950844921E+04    0.16538E-04   -0.88388E-05  2858   0.539E-03    0.189E-02
RMM:   9    -0.229950845435E+04   -0.51405E-05   -0.30439E-05  2825   0.384E-03
 149 F= -.23194357E+04 E0= -.23194357E+04  d E =-.194858E-01  mag=     1.0000
       N       E                     dE             d eps       ncg     rms          rms(c)
DAV:   1    -0.229949603217E+04    0.12417E-01   -0.54184E+00  4368   0.120E+00    0.494E-01
RMM:   2    -0.229951059730E+04   -0.14565E-01   -0.17630E-01  6181   0.212E-01    0.303E-01
RMM:   3    -0.229951009557E+04    0.50173E-03   -0.11169E-02  5329   0.634E-02    0.177E-01
RMM:   4    -0.229950988063E+04    0.21494E-03   -0.31944E-03  4985   0.229E-02    0.596E-02
RMM:   5    -0.229950988636E+04   -0.57262E-05   -0.26068E-04  3271   0.127E-02    0.311E-02
RMM:   6    -0.229950988524E+04    0.11185E-05   -0.51315E-05  2833   0.419E-03
 150 F= -.23194369E+04 E0= -.23194369E+04  d E =-.207180E-01  mag=     1.0000
