       N       E                     dE             d eps       ncg     rms          rms(c)
DAV:   1     0.125318875843E+05    0.12532E+05   -0.81886E+05  4384   0.143E+03
DAV:   2    -0.107951939586E+04   -0.13611E+05   -0.13058E+05  5400   0.329E+02
DAV:   3    -0.247274811435E+04   -0.13932E+04   -0.13821E+04  5272   0.109E+02
DAV:   4    -0.251166591587E+04   -0.38918E+02   -0.38744E+02  6304   0.256E+01
DAV:   5    -0.251244343983E+04   -0.77752E+00   -0.77660E+00  5472   0.293E+00    0.170E+02
RMM:   6    -0.147112357225E+04    0.10413E+04   -0.19376E+03  4341   0.389E+01    0.733E+01
RMM:   7    -0.164447613367E+04   -0.17335E+03   -0.27018E+02  4978   0.138E+01    0.541E+01
RMM:   8    -0.168806189138E+04   -0.43586E+02   -0.68147E+01  5052   0.731E+00    0.383E+01
RMM:   9    -0.180202515604E+04   -0.11396E+03   -0.56510E+01  4462   0.769E+00    0.260E+01
RMM:  10    -0.194501366730E+04   -0.14299E+03   -0.55072E+01  4623   0.717E+00    0.171E+01
RMM:  11    -0.206990946160E+04   -0.12490E+03   -0.66018E+01  4426   0.625E+00    0.132E+01
RMM:  12    -0.222543680094E+04   -0.15553E+03   -0.14096E+02  4422   0.846E+00    0.702E+00
RMM:  13    -0.228319120168E+04   -0.57754E+02   -0.54955E+01  4428   0.531E+00    0.418E+00
RMM:  14    -0.230042080607E+04   -0.17230E+02   -0.19947E+01  4576   0.349E+00    0.234E+00
RMM:  15    -0.230316979632E+04   -0.27490E+01   -0.42635E+00  4872   0.172E+00    0.138E+00
RMM:  16    -0.230406038815E+04   -0.89059E+00   -0.78597E-01  4877   0.597E-01    0.744E-01
RMM:  17    -0.230443000834E+04   -0.36962E+00   -0.14547E-01  4793   0.401E-01    0.414E-01
RMM:  18    -0.230451867928E+04   -0.88671E-01   -0.45254E-02  4486   0.172E-01    0.263E-01
RMM:  19    -0.230453900422E+04   -0.20325E-01   -0.12619E-02  4676   0.110E-01    0.155E-01
RMM:  20    -0.230456167199E+04   -0.22668E-01   -0.85508E-03  4362   0.733E-02    0.150E-01
RMM:  21    -0.230456710172E+04   -0.54297E-02   -0.18568E-03  4691   0.456E-02    0.134E-01
RMM:  22    -0.230457542921E+04   -0.83275E-02   -0.25178E-03  4341   0.342E-02    0.990E-02
RMM:  23    -0.230458251320E+04   -0.70840E-02   -0.23045E-03  4357   0.373E-02    0.722E-02
RMM:  24    -0.230458513066E+04   -0.26175E-02   -0.94162E-04  4509   0.277E-02    0.525E-02
RMM:  25    -0.230458685379E+04   -0.17231E-02   -0.72657E-04  3978   0.204E-02    0.475E-02
RMM:  26    -0.230458730599E+04   -0.45221E-03   -0.37969E-04  3894   0.175E-02    0.346E-02
RMM:  27    -0.230458736099E+04   -0.54992E-04   -0.15875E-04  3650   0.104E-02    0.256E-02
RMM:  28    -0.230458737227E+04   -0.11280E-04   -0.12291E-04  3499   0.944E-03    0.168E-02
RMM:  29    -0.230458739361E+04   -0.21346E-04   -0.73094E-05  3244   0.768E-03    0.116E-02
RMM:  30    -0.230458742059E+04   -0.26976E-04   -0.69879E-05  3207   0.699E-03    0.756E-03
RMM:  31    -0.230458743060E+04   -0.10008E-04   -0.30240E-05  2945   0.531E-03    0.426E-03
RMM:  32    -0.230458745037E+04   -0.19773E-04   -0.11665E-05  2812   0.326E-03    0.308E-03
RMM:  33    -0.230458746477E+04   -0.14404E-04   -0.34414E-06  2728   0.224E-03    0.193E-03
RMM:  34    -0.230458747099E+04   -0.62129E-05   -0.30771E-06  2471   0.157E-03
   1 F= -.23245749E+04 E0= -.23245749E+04  d E =-.232457E+04  mag=     2.0000
       N       E                     dE             d eps       ncg     rms          rms(c)
DAV:   1    -0.230458489864E+04    0.25661E-02   -0.75452E-01  5052   0.869E-01    0.360E-01
RMM:   2    -0.230459357852E+04   -0.86799E-02   -0.96991E-02  5535   0.180E-01    0.184E-01
RMM:   3    -0.230459343448E+04    0.14404E-03   -0.76945E-03  4918   0.739E-02    0.108E-01
RMM:   4    -0.230459323263E+04    0.20185E-03   -0.12728E-03  4512   0.208E-02    0.582E-02
RMM:   5    -0.230459313853E+04    0.94099E-04   -0.24346E-04  4379   0.165E-02    0.240E-02
RMM:   6    -0.230459311759E+04    0.20942E-04   -0.75756E-05  3767   0.614E-03    0.153E-02
RMM:   7    -0.230459310693E+04    0.10661E-04   -0.15946E-05  2825   0.580E-03    0.952E-03
RMM:   8    -0.230459310436E+04    0.25703E-05   -0.93709E-06  2792   0.304E-03
   2 F= -.23245802E+04 E0= -.23245802E+04  d E =-.530046E-02  mag=     2.0000
       N       E                     dE             d eps       ncg     rms          rms(c)
DAV:   1    -0.230459303977E+04    0.67162E-04   -0.15122E-02  5036   0.123E-01    0.516E-02
RMM:   2    -0.230459321407E+04   -0.17430E-03   -0.19273E-03  5751   0.268E-02    0.276E-02
RMM:   3    -0.230459321312E+04    0.94685E-06   -0.15728E-04  2967   0.106E-02    0.161E-02
RMM:   4    -0.230459321057E+04    0.25526E-05   -0.24915E-05  2835   0.361E-03
   3 F= -.23245803E+04 E0= -.23245803E+04  d E =-.545387E-02  mag=     2.0000
       N       E                     dE             d eps       ncg     rms          rms(c)
DAV:   1    -0.230459245903E+04    0.75409E-03   -0.36132E-01  4572   0.618E-01    0.227E-01
RMM:   2    -0.230459560165E+04   -0.31426E-02   -0.35077E-02  5812   0.116E-01    0.901E-02
RMM:   3    -0.230459557844E+04    0.23202E-04   -0.23651E-03  4796   0.397E-02    0.515E-02
RMM:   4    -0.230459555166E+04    0.26781E-04   -0.45261E-04  4124   0.113E-02    0.275E-02
RMM:   5    -0.230459554040E+04    0.11269E-04   -0.49598E-05  3116   0.778E-03    0.160E-02
RMM:   6    -0.230459553623E+04    0.41648E-05   -0.18461E-05  2846   0.468E-03
   4 F= -.23245824E+04 E0= -.23245824E+04  d E =-.214069E-02  mag=     2.0000
       N       E                     dE             d eps       ncg     rms          rms(c)
DAV:   1    -0.230459519297E+04    0.34742E-03   -0.59889E-02  4752   0.252E-01    0.925E-02
RMM:   2    -0.230459571972E+04   -0.52675E-03   -0.58665E-03  6060   0.483E-02    0.380E-02
RMM:   3    -0.230459571699E+04    0.27275E-05   -0.41358E-04  3347   0.152E-02    0.219E-02
RMM:   4    -0.230459571122E+04    0.57748E-05   -0.75738E-05  2906   0.511E-03
   5 F= -.23245825E+04 E0= -.23245825E+04  d E =-.223929E-02  mag=     2.0000
       N       E                     dE             d eps       ncg     rms          rms(c)
DAV:   1    -0.230459536606E+04    0.35093E-03   -0.35451E-01  4508   0.608E-01    0.159E-01
RMM:   2    -0.230459719180E+04   -0.18257E-02   -0.20679E-02  5589   0.999E-02    0.752E-02
RMM:   3    -0.230459718610E+04    0.56986E-05   -0.16275E-03  4518   0.407E-02    0.499E-02
RMM:   4    -0.230459715684E+04    0.29260E-04   -0.29071E-04  4061   0.105E-02    0.269E-02
RMM:   5    -0.230459714854E+04    0.83044E-05   -0.46197E-05  2991   0.743E-03
   6 F= -.23245839E+04 E0= -.23245839E+04  d E =-.132886E-02  mag=     2.0000
       N       E                     dE             d eps       ncg     rms          rms(c)
DAV:   1    -0.230459705812E+04    0.98721E-04   -0.30325E-02  5040   0.178E-01    0.471E-02
RMM:   2    -0.230459721750E+04   -0.15937E-03   -0.18165E-03  5683   0.302E-02    0.231E-02
RMM:   3    -0.230459721534E+04    0.21537E-05   -0.11483E-04  3041   0.111E-02    0.145E-02
RMM:   4    -0.230459721310E+04    0.22396E-05   -0.19363E-05  2824   0.352E-03
   7 F= -.23245839E+04 E0= -.23245839E+04  d E =-.136094E-02  mag=     2.0000
       N       E                     dE             d eps       ncg     rms          rms(c)
DAV:   1    -0.230459718022E+04    0.35129E-04   -0.33483E-01  4460   0.585E-01    0.140E-01
RMM:   2    -0.230459834400E+04   -0.11638E-02   -0.13076E-02  5223   0.911E-02    0.668E-02
RMM:   3    -0.230459828159E+04    0.62414E-04   -0.77470E-04  4501   0.357E-02    0.428E-02
RMM:   4    -0.230459824615E+04    0.35439E-04   -0.21981E-04  4178   0.115E-02    0.188E-02
RMM:   5    -0.230459824293E+04    0.32211E-05   -0.21809E-05  2898   0.747E-03
   8 F= -.23245850E+04 E0= -.23245850E+04  d E =-.106615E-02  mag=     2.0000
       N       E                     dE             d eps       ncg     rms          rms(c)
DAV:   1    -0.230459807113E+04    0.17502E-03   -0.40873E-02  4744   0.205E-01    0.495E-02
RMM:   2    -0.230459821739E+04   -0.14625E-03   -0.16466E-03  5215   0.329E-02    0.244E-02
RMM:   3    -0.230459820841E+04    0.89760E-05   -0.95856E-05  3248   0.123E-02
   9 F= -.23245850E+04 E0= -.23245850E+04  d E =-.104407E-02  mag=     2.0000
       N       E                     dE             d eps       ncg     rms          rms(c)
DAV:   1    -0.230459801997E+04    0.19742E-03   -0.37727E-01  4432   0.626E-01    0.128E-01
RMM:   2    -0.230459952637E+04   -0.15064E-02   -0.16231E-02  5184   0.932E-02    0.636E-02
RMM:   3    -0.230459950519E+04    0.21182E-04   -0.11225E-03  4513   0.387E-02    0.434E-02
RMM:   4    -0.230459948962E+04    0.15568E-04   -0.18730E-04  3939   0.977E-03    0.271E-02
RMM:   5    -0.230459947958E+04    0.10035E-04   -0.38978E-05  3074   0.714E-03    0.817E-03
RMM:   6    -0.230459948008E+04   -0.49814E-06   -0.94818E-06  2808   0.415E-03
  10 F= -.23245861E+04 E0= -.23245861E+04  d E =-.117146E-02  mag=     2.0000
       N       E                     dE             d eps       ncg     rms          rms(c)
DAV:   1    -0.230459468771E+04    0.47919E-02   -0.14365E+00  4416   0.122E+00    0.251E-01
RMM:   2    -0.230460050799E+04   -0.58203E-02   -0.62428E-02  5130   0.183E-01    0.122E-01
RMM:   3    -0.230460041049E+04    0.97497E-04   -0.40881E-03  4728   0.785E-02    0.821E-02
RMM:   4    -0.230460034755E+04    0.62934E-04   -0.71911E-04  4468   0.187E-02    0.496E-02
RMM:   5    -0.230460031178E+04    0.35775E-04   -0.14294E-04  4053   0.132E-02    0.159E-02
RMM:   6    -0.230460031159E+04    0.18634E-06   -0.26212E-05  2944   0.531E-03
  11 F= -.23245868E+04 E0= -.23245868E+04  d E =-.180305E-02  mag=     2.0000
       N       E                     dE             d eps       ncg     rms          rms(c)
DAV:   1    -0.230459956314E+04    0.74864E-03   -0.39245E-01  4416   0.646E-01    0.156E-01
RMM:   2    -0.230460161293E+04   -0.20498E-02   -0.22082E-02  5419   0.105E-01    0.733E-02
RMM:   3    -0.230460161607E+04   -0.31426E-05   -0.16455E-03  4611   0.425E-02    0.480E-02
RMM:   4    -0.230460159370E+04    0.22378E-04   -0.28894E-04  4145   0.109E-02    0.271E-02
RMM:   5    -0.230460158366E+04    0.10035E-04   -0.44252E-05  3030   0.750E-03    0.113E-02
RMM:   6    -0.230460158276E+04    0.90507E-06   -0.14460E-05  2829   0.444E-03
  12 F= -.23245879E+04 E0= -.23245879E+04  d E =-.111359E-02  mag=     2.0000
       N       E                     dE             d eps       ncg     rms          rms(c)
DAV:   1    -0.230460124641E+04    0.33725E-03   -0.10230E-01  4480   0.330E-01    0.802E-02
RMM:   2    -0.230460178381E+04   -0.53740E-03   -0.57804E-03  5703   0.544E-02    0.377E-02
RMM:   3    -0.230460178987E+04   -0.60527E-05   -0.45796E-04  3773   0.211E-02    0.252E-02
RMM:   4    -0.230460178389E+04    0.59813E-05   -0.70821E-05  3006   0.589E-03
  13 F= -.23245880E+04 E0= -.23245880E+04  d E =-.123339E-02  mag=     2.0000
       N       E                     dE             d eps       ncg     rms          rms(c)
DAV:   1    -0.230460176337E+04    0.26495E-04   -0.19274E-01  4416   0.453E-01    0.113E-01
RMM:   2    -0.230460276065E+04   -0.99728E-03   -0.10777E-02  5730   0.746E-02    0.532E-02
RMM:   3    -0.230460275947E+04    0.11783E-05   -0.68803E-04  4269   0.246E-02    0.350E-02
RMM:   4    -0.230460274709E+04    0.12378E-04   -0.13959E-04  3488   0.829E-03    0.179E-02
RMM:   5    -0.230460274588E+04    0.12136E-05   -0.23085E-05  2882   0.572E-03
  14 F= -.23245890E+04 E0= -.23245890E+04  d E =-.101722E-02  mag=     2.0000
       N       E                     dE             d eps       ncg     rms          rms(c)
DAV:   1    -0.230460132575E+04    0.14213E-02   -0.33397E-01  4416   0.597E-01    0.150E-01
RMM:   2    -0.230460307988E+04   -0.17541E-02   -0.18954E-02  5606   0.981E-02    0.698E-02
RMM:   3    -0.230460306357E+04    0.16314E-04   -0.11036E-03  4571   0.332E-02    0.447E-02
RMM:   4    -0.230460303860E+04    0.24969E-04   -0.22017E-04  3962   0.103E-02    0.214E-02
RMM:   5    -0.230460303607E+04    0.25294E-05   -0.28710E-05  2927   0.714E-03
  15 F= -.23245894E+04 E0= -.23245894E+04  d E =-.137912E-02  mag=     2.0000
       N       E                     dE             d eps       ncg     rms          rms(c)
DAV:   1    -0.230460323750E+04   -0.19890E-03   -0.62618E-02  4624   0.258E-01    0.602E-02
RMM:   2    -0.230460357862E+04   -0.34112E-03   -0.36553E-03  5655   0.424E-02    0.294E-02
RMM:   3    -0.230460358300E+04   -0.43818E-05   -0.26589E-04  3455   0.159E-02    0.199E-02
RMM:   4    -0.230460357986E+04    0.31394E-05   -0.43389E-05  2860   0.446E-03
  16 F= -.23245899E+04 E0= -.23245899E+04  d E =-.550058E-03  mag=     2.0000
       N       E                     dE             d eps       ncg     rms          rms(c)
DAV:   1    -0.230460154855E+04    0.20344E-02   -0.56694E-01  4384   0.775E-01    0.178E-01
RMM:   2    -0.230460459116E+04   -0.30426E-02   -0.32591E-02  5477   0.124E-01    0.880E-02
RMM:   3    -0.230460461894E+04   -0.27778E-04   -0.23514E-03  4638   0.465E-02    0.591E-02
RMM:   4    -0.230460458732E+04    0.31616E-04   -0.41434E-04  4217   0.123E-02    0.338E-02
RMM:   5    -0.230460457450E+04    0.12817E-04   -0.70754E-05  3206   0.850E-03    0.147E-02
RMM:   6    -0.230460457251E+04    0.19940E-05   -0.20932E-05  2866   0.498E-03
  17 F= -.23245909E+04 E0= -.23245909E+04  d E =-.156038E-02  mag=     2.0000
       N       E                     dE             d eps       ncg     rms          rms(c)
DAV:   1    -0.230459156076E+04    0.13014E-01   -0.22750E+00  4376   0.155E+00    0.356E-01
RMM:   2    -0.230460387752E+04   -0.12317E-01   -0.13177E-01  5421   0.247E-01    0.174E-01
RMM:   3    -0.230460390865E+04   -0.31129E-04   -0.85152E-03  4815   0.947E-02    0.114E-01
RMM:   4    -0.230460376655E+04    0.14210E-03   -0.15295E-03  4562   0.239E-02    0.604E-02
RMM:   5    -0.230460373653E+04    0.30023E-04   -0.23468E-04  4249   0.167E-02    0.272E-02
RMM:   6    -0.230460372949E+04    0.70354E-05   -0.62274E-05  3453   0.684E-03
  18 F= -.23245901E+04 E0= -.23245901E+04  d E =-.747936E-03  mag=     2.0000
       N       E                     dE             d eps       ncg     rms          rms(c)
DAV:   1    -0.230459935874E+04    0.43778E-02   -0.10182E+00  4384   0.104E+00    0.238E-01
RMM:   2    -0.230460473264E+04   -0.53739E-02   -0.57752E-02  5533   0.166E-01    0.117E-01
RMM:   3    -0.230460481369E+04   -0.81051E-04   -0.45596E-03  4835   0.618E-02    0.797E-02
RMM:   4    -0.230460476214E+04    0.51556E-04   -0.69771E-04  4474   0.155E-02    0.480E-02
RMM:   5    -0.230460473110E+04    0.31039E-04   -0.12680E-04  3747   0.103E-02    0.219E-02
RMM:   6    -0.230460472704E+04    0.40523E-05   -0.41229E-05  3123   0.637E-03
  19 F= -.23245911E+04 E0= -.23245911E+04  d E =-.172572E-02  mag=     2.0000
       N       E                     dE             d eps       ncg     rms          rms(c)
DAV:   1    -0.230460513714E+04   -0.40604E-03   -0.80215E-02  4416   0.292E-01    0.750E-02
RMM:   2    -0.230460552208E+04   -0.38494E-03   -0.42228E-03  5747   0.479E-02    0.349E-02
RMM:   3    -0.230460551299E+04    0.90849E-05   -0.25679E-04  3817   0.165E-02    0.218E-02
RMM:   4    -0.230460550427E+04    0.87281E-05   -0.49217E-05  3070   0.571E-03
  20 F= -.23245918E+04 E0= -.23245918E+04  d E =-.741428E-03  mag=     2.0000
       N       E                     dE             d eps       ncg     rms          rms(c)
DAV:   1    -0.230460331541E+04    0.21976E-02   -0.58590E-01  4384   0.791E-01    0.205E-01
RMM:   2    -0.230460615900E+04   -0.28436E-02   -0.31214E-02  5419   0.126E-01    0.953E-02
RMM:   3    -0.230460611834E+04    0.40661E-04   -0.20529E-03  4782   0.500E-02    0.611E-02
RMM:   4    -0.230460606829E+04    0.50050E-04   -0.45564E-04  4369   0.148E-02    0.319E-02
RMM:   5    -0.230460605487E+04    0.13422E-04   -0.65961E-05  3479   0.103E-02    0.120E-02
RMM:   6    -0.230460605221E+04    0.26536E-05   -0.15544E-05  2827   0.413E-03
  21 F= -.23245923E+04 E0= -.23245923E+04  d E =-.119113E-02  mag=     2.0000
       N       E                     dE             d eps       ncg     rms          rms(c)
DAV:   1    -0.230460593162E+04    0.12325E-03   -0.41053E-02  4640   0.209E-01    0.540E-02
RMM:   2    -0.230460612570E+04   -0.19408E-03   -0.21373E-03  5641   0.342E-02    0.248E-02
RMM:   3    -0.230460612387E+04    0.18287E-05   -0.14638E-04  3292   0.124E-02    0.157E-02
RMM:   4    -0.230460612108E+04    0.27909E-05   -0.26460E-05  2828   0.425E-03
  22 F= -.23245924E+04 E0= -.23245924E+04  d E =-.128611E-02  mag=     2.0000
       N       E                     dE             d eps       ncg     rms          rms(c)
DAV:   1    -0.230460624581E+04   -0.12195E-03   -0.11096E-01  4416   0.344E-01    0.885E-02
RMM:   2    -0.230460679723E+04   -0.55142E-03   -0.59281E-03  5488   0.542E-02    0.402E-02
RMM:   3    -0.230460679655E+04    0.68202E-06   -0.40512E-04  3937   0.210E-02    0.257E-02
RMM:   4    -0.230460678865E+04    0.79003E-05   -0.70629E-05  3190   0.631E-03
  23 F= -.23245930E+04 E0= -.23245930E+04  d E =-.669437E-03  mag=     2.0000
       N       E                     dE             d eps       ncg     rms          rms(c)
DAV:   1    -0.230460577870E+04    0.10179E-02   -0.25902E-01  4416   0.526E-01    0.138E-01
RMM:   2    -0.230460707109E+04   -0.12924E-02   -0.13943E-02  5542   0.827E-02    0.634E-02
RMM:   3    -0.230460707571E+04   -0.46163E-05   -0.10058E-03  4627   0.310E-02    0.408E-02
RMM:   4    -0.230460705867E+04    0.17044E-04   -0.16905E-04  3830   0.917E-03    0.231E-02
RMM:   5    -0.230460705306E+04    0.56105E-05   -0.32763E-05  2985   0.681E-03
  24 F= -.23245933E+04 E0= -.23245933E+04  d E =-.936117E-03  mag=     2.0000
       N       E                     dE             d eps       ncg     rms          rms(c)
DAV:   1    -0.230460689060E+04    0.16806E-03   -0.13083E-01  4464   0.371E-01    0.882E-02
RMM:   2    -0.230460762689E+04   -0.73629E-03   -0.79468E-03  5576   0.583E-02    0.445E-02
RMM:   3    -0.230460763820E+04   -0.11310E-04   -0.56445E-04  3920   0.239E-02    0.281E-02
RMM:   4    -0.230460762922E+04    0.89791E-05   -0.93743E-05  3127   0.635E-03
  25 F= -.23245939E+04 E0= -.23245939E+04  d E =-.573222E-03  mag=     2.0000
       N       E                     dE             d eps       ncg     rms          rms(c)
DAV:   1    -0.230460686010E+04    0.77811E-03   -0.17835E-01  4432   0.433E-01    0.103E-01
RMM:   2    -0.230460785096E+04   -0.99086E-03   -0.10704E-02  5571   0.672E-02    0.522E-02
RMM:   3    -0.230460786384E+04   -0.12877E-04   -0.72917E-04  4173   0.265E-02    0.331E-02
RMM:   4    -0.230460785155E+04    0.12285E-04   -0.12848E-04  3381   0.726E-03    0.177E-02
RMM:   5    -0.230460784901E+04    0.25393E-05   -0.20383E-05  2846   0.552E-03
  26 F= -.23245941E+04 E0= -.23245941E+04  d E =-.789355E-03  mag=     2.0000
       N       E                     dE             d eps       ncg     rms          rms(c)
DAV:   1    -0.230460750105E+04    0.35050E-03   -0.16567E-01  4416   0.425E-01    0.114E-01
RMM:   2    -0.230460851352E+04   -0.10125E-02   -0.10829E-02  5605   0.698E-02    0.512E-02
RMM:   3    -0.230460852956E+04   -0.16038E-04   -0.71908E-04  4296   0.263E-02    0.330E-02
RMM:   4    -0.230460852067E+04    0.88878E-05   -0.12848E-04  3408   0.762E-03    0.192E-02
RMM:   5    -0.230460851688E+04    0.37888E-05   -0.21886E-05  2853   0.583E-03
  27 F= -.23245949E+04 E0= -.23245949E+04  d E =-.747420E-03  mag=     2.0000
       N       E                     dE             d eps       ncg     rms          rms(c)
DAV:   1    -0.230460722741E+04    0.12933E-02   -0.23393E-01  4384   0.505E-01    0.135E-01
RMM:   2    -0.230460866732E+04   -0.14399E-02   -0.15382E-02  5535   0.822E-02    0.612E-02
RMM:   3    -0.230460868184E+04   -0.14521E-04   -0.94164E-04  4471   0.309E-02    0.389E-02
RMM:   4    -0.230460866589E+04    0.15959E-04   -0.17416E-04  3834   0.897E-03    0.208E-02
RMM:   5    -0.230460866288E+04    0.30018E-05   -0.24947E-05  2865   0.666E-03
  28 F= -.23245951E+04 E0= -.23245951E+04  d E =-.987503E-03  mag=     2.0000
       N       E                     dE             d eps       ncg     rms          rms(c)
DAV:   1    -0.230460766957E+04    0.99632E-03   -0.23923E-01  4384   0.503E-01    0.126E-01
RMM:   2    -0.230460927700E+04   -0.16074E-02   -0.16986E-02  5584   0.833E-02    0.609E-02
RMM:   3    -0.230460931270E+04   -0.35693E-04   -0.10904E-03  4410   0.297E-02    0.393E-02
RMM:   4    -0.230460929953E+04    0.13167E-04   -0.18465E-04  3576   0.842E-03    0.219E-02
RMM:   5    -0.230460929638E+04    0.31541E-05   -0.27794E-05  2894   0.618E-03
  29 F= -.23245958E+04 E0= -.23245958E+04  d E =-.708023E-03  mag=     2.0000
       N       E                     dE             d eps       ncg     rms          rms(c)
DAV:   1    -0.230460561293E+04    0.36866E-02   -0.56054E-01  4376   0.771E-01    0.193E-01
RMM:   2    -0.230460938577E+04   -0.37728E-02   -0.39859E-02  5542   0.127E-01    0.930E-02
RMM:   3    -0.230460946297E+04   -0.77203E-04   -0.25248E-03  4786   0.462E-02    0.597E-02
RMM:   4    -0.230460942944E+04    0.33530E-04   -0.43024E-04  4196   0.124E-02    0.325E-02
RMM:   5    -0.230460942105E+04    0.83975E-05   -0.59203E-05  3168   0.885E-03
  30 F= -.23245960E+04 E0= -.23245960E+04  d E =-.946038E-03  mag=     2.0000
       N       E                     dE             d eps       ncg     rms          rms(c)
DAV:   1    -0.230460865044E+04    0.77900E-03   -0.19236E-01  4448   0.447E-01    0.110E-01
RMM:   2    -0.230461003592E+04   -0.13855E-02   -0.14690E-02  5637   0.752E-02    0.557E-02
RMM:   3    -0.230461007750E+04   -0.41580E-04   -0.10229E-03  4224   0.282E-02    0.357E-02
RMM:   4    -0.230461006713E+04    0.10374E-04   -0.15271E-04  3188   0.721E-03    0.204E-02
RMM:   5    -0.230461006462E+04    0.25107E-05   -0.24632E-05  2838   0.528E-03
  31 F= -.23245966E+04 E0= -.23245966E+04  d E =-.599774E-03  mag=     2.0000
       N       E                     dE             d eps       ncg     rms          rms(c)
DAV:   1    -0.230460663685E+04    0.34303E-02   -0.52057E-01  4376   0.736E-01    0.179E-01
RMM:   2    -0.230461039188E+04   -0.37550E-02   -0.39728E-02  5592   0.123E-01    0.903E-02
RMM:   3    -0.230461049883E+04   -0.10695E-03   -0.27752E-03  4760   0.451E-02    0.593E-02
RMM:   4    -0.230461047100E+04    0.27824E-04   -0.42784E-04  4155   0.113E-02    0.351E-02
RMM:   5    -0.230461045906E+04    0.11946E-04   -0.65215E-05  3092   0.794E-03    0.157E-02
RMM:   6    -0.230461045643E+04    0.26282E-05   -0.22211E-05  2837   0.518E-03
  32 F= -.23245970E+04 E0= -.23245970E+04  d E =-.919279E-03  mag=     2.0000
       N       E                     dE             d eps       ncg     rms          rms(c)
DAV:   1    -0.230460909861E+04    0.13605E-02   -0.29987E-01  4376   0.561E-01    0.147E-01
RMM:   2    -0.230461136671E+04   -0.22681E-02   -0.24009E-02  5844   0.979E-02    0.715E-02
RMM:   3    -0.230461143721E+04   -0.70501E-04   -0.17215E-03  4633   0.320E-02    0.480E-02
RMM:   4    -0.230461142167E+04    0.15540E-04   -0.26798E-04  3615   0.933E-03    0.284E-02
RMM:   5    -0.230461141415E+04    0.75255E-05   -0.45456E-05  3018   0.668E-03
  33 F= -.23245978E+04 E0= -.23245978E+04  d E =-.833494E-03  mag=     2.0000
       N       E                     dE             d eps       ncg     rms          rms(c)
DAV:   1    -0.230461007628E+04    0.13454E-02   -0.20463E-01  4400   0.464E-01    0.122E-01
RMM:   2    -0.230461163583E+04   -0.15595E-02   -0.16514E-02  5807   0.806E-02    0.600E-02
RMM:   3    -0.230461167131E+04   -0.35483E-04   -0.10435E-03  4315   0.265E-02    0.390E-02
RMM:   4    -0.230461165969E+04    0.11618E-04   -0.18355E-04  3385   0.808E-03    0.214E-02
RMM:   5    -0.230461165555E+04    0.41427E-05   -0.28742E-05  2890   0.591E-03
  34 F= -.23245979E+04 E0= -.23245979E+04  d E =-.971760E-03  mag=     2.0000
       N       E                     dE             d eps       ncg     rms          rms(c)
DAV:   1    -0.230461051599E+04    0.11437E-02   -0.24816E-01  4376   0.513E-01    0.137E-01
RMM:   2    -0.230461237507E+04   -0.18591E-02   -0.19608E-02  5743   0.889E-02    0.654E-02
RMM:   3    -0.230461242857E+04   -0.53500E-04   -0.14142E-03  4473   0.326E-02    0.431E-02
RMM:   4    -0.230461241593E+04    0.12644E-04   -0.22715E-04  3575   0.887E-03    0.251E-02
RMM:   5    -0.230461241000E+04    0.59255E-05   -0.36213E-05  2892   0.645E-03
  35 F= -.23245986E+04 E0= -.23245986E+04  d E =-.636913E-03  mag=     2.0000
       N       E                     dE             d eps       ncg     rms          rms(c)
DAV:   1    -0.230461034484E+04    0.20711E-02   -0.30728E-01  4376   0.571E-01    0.152E-01
RMM:   2    -0.230461265512E+04   -0.23103E-02   -0.24338E-02  5728   0.986E-02    0.729E-02
RMM:   3    -0.230461271261E+04   -0.57495E-04   -0.16472E-03  4589   0.346E-02    0.475E-02
RMM:   4    -0.230461269552E+04    0.17093E-04   -0.27636E-04  3819   0.971E-03    0.270E-02
RMM:   5    -0.230461268896E+04    0.65635E-05   -0.41453E-05  2943   0.691E-03
  36 F= -.23245987E+04 E0= -.23245987E+04  d E =-.784500E-03  mag=     2.0000
       N       E                     dE             d eps       ncg     rms          rms(c)
DAV:   1    -0.230461119318E+04    0.15023E-02   -0.34083E-01  4376   0.599E-01    0.156E-01
RMM:   2    -0.230461334003E+04   -0.21468E-02   -0.22699E-02  5657   0.999E-02    0.740E-02
RMM:   3    -0.230461337545E+04   -0.35419E-04   -0.14473E-03  4624   0.355E-02    0.476E-02
RMM:   4    -0.230461335611E+04    0.19334E-04   -0.25210E-04  3979   0.103E-02    0.250E-02
RMM:   5    -0.230461335408E+04    0.20343E-05   -0.36048E-05  2903   0.728E-03
  37 F= -.23245994E+04 E0= -.23245994E+04  d E =-.691557E-03  mag=     2.0000
       N       E                     dE             d eps       ncg     rms          rms(c)
DAV:   1    -0.230461222351E+04    0.11326E-02   -0.18503E-01  4416   0.442E-01    0.115E-01
RMM:   2    -0.230461338912E+04   -0.11656E-02   -0.12309E-02  5628   0.743E-02    0.550E-02
RMM:   3    -0.230461341263E+04   -0.23513E-04   -0.83456E-04  4291   0.273E-02    0.357E-02
RMM:   4    -0.230461340268E+04    0.99463E-05   -0.14021E-04  3400   0.781E-03    0.194E-02
RMM:   5    -0.230461340103E+04    0.16558E-05   -0.22479E-05  2836   0.576E-03
  38 F= -.23245995E+04 E0= -.23245995E+04  d E =-.757688E-03  mag=     2.0000
       N       E                     dE             d eps       ncg     rms          rms(c)
DAV:   1    -0.230461165865E+04    0.17440E-02   -0.39223E-01  4376   0.641E-01    0.166E-01
RMM:   2    -0.230461391242E+04   -0.22538E-02   -0.23876E-02  5557   0.106E-01    0.801E-02
RMM:   3    -0.230461393782E+04   -0.25402E-04   -0.15163E-03  4686   0.379E-02    0.520E-02
RMM:   4    -0.230461391354E+04    0.24279E-04   -0.27763E-04  4095   0.113E-02    0.259E-02
RMM:   5    -0.230461391143E+04    0.21176E-05   -0.36350E-05  2934   0.770E-03
  39 F= -.23246001E+04 E0= -.23246001E+04  d E =-.609121E-03  mag=     2.0000
       N       E                     dE             d eps       ncg     rms          rms(c)
DAV:   1    -0.230461376048E+04    0.15306E-03   -0.20108E-02  4832   0.146E-01    0.391E-02
RMM:   2    -0.230461387974E+04   -0.11926E-03   -0.12602E-03  5620   0.255E-02    0.195E-02
RMM:   3    -0.230461388281E+04   -0.30733E-05   -0.94091E-05  2914   0.935E-03
  40 F= -.23246001E+04 E0= -.23246001E+04  d E =-.602950E-03  mag=     2.0000
       N       E                     dE             d eps       ncg     rms          rms(c)
DAV:   1    -0.230461294533E+04    0.93440E-03   -0.22982E-01  4376   0.493E-01    0.141E-01
RMM:   2    -0.230461439370E+04   -0.14484E-02   -0.15601E-02  5571   0.845E-02    0.662E-02
RMM:   3    -0.230461440868E+04   -0.14980E-04   -0.12051E-03  4492   0.284E-02    0.440E-02
RMM:   4    -0.230461439277E+04    0.15908E-04   -0.22622E-04  3895   0.943E-03    0.250E-02
RMM:   5    -0.230461438484E+04    0.79359E-05   -0.37993E-05  2910   0.643E-03
  41 F= -.23246005E+04 E0= -.23246005E+04  d E =-.458360E-03  mag=     2.0000
       N       E                     dE             d eps       ncg     rms          rms(c)
DAV:   1    -0.230461419663E+04    0.19615E-03   -0.25706E-02  4656   0.165E-01    0.478E-02
RMM:   2    -0.230461436039E+04   -0.16376E-03   -0.17664E-03  5714   0.290E-02    0.224E-02
RMM:   3    -0.230461435974E+04    0.64904E-06   -0.96550E-05  3071   0.110E-02
  42 F= -.23246005E+04 E0= -.23246005E+04  d E =-.418504E-03  mag=     2.0000
       N       E                     dE             d eps       ncg     rms          rms(c)
DAV:   1    -0.230461431690E+04    0.43484E-04   -0.11148E-02  4508   0.108E-01    0.305E-02
RMM:   2    -0.230461438402E+04   -0.67120E-04   -0.71927E-04  5517   0.189E-02    0.124E-02
RMM:   3    -0.230461438572E+04   -0.17010E-05   -0.57523E-05  2824   0.677E-03
  43 F= -.23246005E+04 E0= -.23246005E+04  d E =-.453983E-03  mag=     2.0000
       N       E                     dE             d eps       ncg     rms          rms(c)
DAV:   1    -0.230461363421E+04    0.74981E-03   -0.16173E-01  4376   0.416E-01    0.119E-01
RMM:   2    -0.230461484039E+04   -0.12062E-02   -0.12878E-02  5694   0.742E-02    0.551E-02
RMM:   3    -0.230461487178E+04   -0.31391E-04   -0.10035E-03  4236   0.244E-02    0.374E-02
RMM:   4    -0.230461486160E+04    0.10178E-04   -0.15830E-04  3211   0.772E-03    0.223E-02
RMM:   5    -0.230461485464E+04    0.69555E-05   -0.29832E-05  2879   0.554E-03
  44 F= -.23246009E+04 E0= -.23246009E+04  d E =-.414731E-03  mag=     2.0000
       N       E                     dE             d eps       ncg     rms          rms(c)
DAV:   1    -0.230461471457E+04    0.14703E-03   -0.21263E-02  4640   0.151E-01    0.446E-02
RMM:   2    -0.230461487740E+04   -0.16283E-03   -0.17441E-03  5760   0.276E-02    0.212E-02
RMM:   3    -0.230461487833E+04   -0.92754E-06   -0.10391E-04  2995   0.103E-02    0.133E-02
RMM:   4    -0.230461487628E+04    0.20511E-05   -0.19716E-05  2815   0.349E-03
  45 F= -.23246009E+04 E0= -.23246009E+04  d E =-.416494E-03  mag=     2.0000
       N       E                     dE             d eps       ncg     rms          rms(c)
DAV:   1    -0.230461411926E+04    0.75907E-03   -0.16249E-01  4376   0.419E-01    0.122E-01
RMM:   2    -0.230461528088E+04   -0.11616E-02   -0.12432E-02  5701   0.734E-02    0.556E-02
RMM:   3    -0.230461530428E+04   -0.23395E-04   -0.91000E-04  4226   0.241E-02    0.366E-02
RMM:   4    -0.230461529426E+04    0.10014E-04   -0.15747E-04  3419   0.792E-03    0.208E-02
RMM:   5    -0.230461529000E+04    0.42626E-05   -0.27710E-05  2866   0.577E-03
  46 F= -.23246013E+04 E0= -.23246013E+04  d E =-.382115E-03  mag=     2.0000
       N       E                     dE             d eps       ncg     rms          rms(c)
DAV:   1    -0.230461512950E+04    0.16476E-03   -0.24177E-02  4672   0.162E-01    0.478E-02
RMM:   2    -0.230461530529E+04   -0.17579E-03   -0.18817E-03  5732   0.289E-02    0.220E-02
RMM:   3    -0.230461530728E+04   -0.19877E-05   -0.11556E-04  3036   0.110E-02    0.139E-02
RMM:   4    -0.230461530558E+04    0.16969E-05   -0.22164E-05  2818   0.349E-03
  47 F= -.23246013E+04 E0= -.23246013E+04  d E =-.385358E-03  mag=     2.0000
       N       E                     dE             d eps       ncg     rms          rms(c)
DAV:   1    -0.230461481333E+04    0.49394E-03   -0.13713E-01  4376   0.380E-01    0.105E-01
RMM:   2    -0.230461571498E+04   -0.90164E-03   -0.96849E-03  5675   0.645E-02    0.506E-02
RMM:   3    -0.230461573344E+04   -0.18466E-04   -0.70174E-04  4027   0.220E-02    0.335E-02
RMM:   4    -0.230461572530E+04    0.81402E-05   -0.12587E-04  3190   0.718E-03    0.194E-02
RMM:   5    -0.230461572097E+04    0.43337E-05   -0.22294E-05  2834   0.527E-03
  48 F= -.23246017E+04 E0= -.23246017E+04  d E =-.391317E-03  mag=     2.0000
       N       E                     dE             d eps       ncg     rms          rms(c)
DAV:   1    -0.230461530819E+04    0.41711E-03   -0.69802E-02  4384   0.271E-01    0.755E-02
RMM:   2    -0.230461577490E+04   -0.46672E-03   -0.50119E-03  5814   0.468E-02    0.362E-02
RMM:   3    -0.230461577902E+04   -0.41140E-05   -0.29140E-04  3593   0.162E-02    0.231E-02
RMM:   4    -0.230461577322E+04    0.57954E-05   -0.56351E-05  2857   0.526E-03
  49 F= -.23246018E+04 E0= -.23246018E+04  d E =-.426308E-03  mag=     2.0000
       N       E                     dE             d eps       ncg     rms          rms(c)
DAV:   1    -0.230461540624E+04    0.37278E-03   -0.11580E-01  4368   0.349E-01    0.101E-01
RMM:   2    -0.230461613444E+04   -0.72820E-03   -0.77785E-03  5795   0.586E-02    0.465E-02
RMM:   3    -0.230461614893E+04   -0.14493E-04   -0.52224E-04  3947   0.198E-02    0.302E-02
RMM:   4    -0.230461614296E+04    0.59710E-05   -0.93289E-05  3053   0.663E-03
  50 F= -.23246021E+04 E0= -.23246021E+04  d E =-.359406E-03  mag=     2.0000
       N       E                     dE             d eps       ncg     rms          rms(c)
DAV:   1    -0.230461574254E+04    0.40639E-03   -0.71999E-02  4528   0.275E-01    0.793E-02
RMM:   2    -0.230461619304E+04   -0.45050E-03   -0.48280E-03  5947   0.474E-02    0.372E-02
RMM:   3    -0.230461620229E+04   -0.92454E-05   -0.34089E-04  3670   0.154E-02    0.248E-02
RMM:   4    -0.230461619920E+04    0.30923E-05   -0.59665E-05  2839   0.523E-03
  51 F= -.23246022E+04 E0= -.23246022E+04  d E =-.407432E-03  mag=     2.0000
       N       E                     dE             d eps       ncg     rms          rms(c)
DAV:   1    -0.230461577654E+04    0.42575E-03   -0.11479E-01  4368   0.344E-01    0.102E-01
RMM:   2    -0.230461659882E+04   -0.82228E-03   -0.87962E-03  5834   0.601E-02    0.491E-02
RMM:   3    -0.230461662400E+04   -0.25179E-04   -0.68826E-04  4016   0.218E-02    0.324E-02
RMM:   4    -0.230461661923E+04    0.47771E-05   -0.11545E-04  2999   0.680E-03    0.193E-02
RMM:   5    -0.230461661513E+04    0.40969E-05   -0.22935E-05  2826   0.499E-03
  52 F= -.23246025E+04 E0= -.23246025E+04  d E =-.383124E-03  mag=     2.0000
       N       E                     dE             d eps       ncg     rms          rms(c)
DAV:   1    -0.230461635315E+04    0.26608E-03   -0.43699E-02  4512   0.213E-01    0.633E-02
RMM:   2    -0.230461667273E+04   -0.31958E-03   -0.34033E-03  5892   0.377E-02    0.302E-02
RMM:   3    -0.230461667864E+04   -0.59098E-05   -0.21240E-04  3378   0.136E-02    0.192E-02
RMM:   4    -0.230461667594E+04    0.26984E-05   -0.39171E-05  2830   0.437E-03
  53 F= -.23246026E+04 E0= -.23246026E+04  d E =-.423715E-03  mag=     2.0000
       N       E                     dE             d eps       ncg     rms          rms(c)
DAV:   1    -0.230461617248E+04    0.50615E-03   -0.12528E-01  4368   0.359E-01    0.111E-01
RMM:   2    -0.230461706760E+04   -0.89511E-03   -0.96018E-03  5776   0.618E-02    0.512E-02
RMM:   3    -0.230461708831E+04   -0.20715E-04   -0.68543E-04  4127   0.223E-02    0.330E-02
RMM:   4    -0.230461708150E+04    0.68168E-05   -0.12390E-04  3244   0.710E-03    0.192E-02
RMM:   5    -0.230461707751E+04    0.39889E-05   -0.23138E-05  2833   0.546E-03
  54 F= -.23246030E+04 E0= -.23246030E+04  d E =-.369966E-03  mag=     2.0000
       N       E                     dE             d eps       ncg     rms          rms(c)
DAV:   1    -0.230461695374E+04    0.12776E-03   -0.20191E-02  4656   0.144E-01    0.453E-02
RMM:   2    -0.230461710299E+04   -0.14926E-03   -0.15964E-03  5728   0.258E-02    0.210E-02
RMM:   3    -0.230461710448E+04   -0.14870E-05   -0.88133E-05  2963   0.984E-03
  55 F= -.23246030E+04 E0= -.23246030E+04  d E =-.384186E-03  mag=     2.0000
       N       E                     dE             d eps       ncg     rms          rms(c)
DAV:   1    -0.230461672496E+04    0.37803E-03   -0.12143E-01  4376   0.353E-01    0.108E-01
RMM:   2    -0.230461753818E+04   -0.81322E-03   -0.87364E-03  5570   0.604E-02    0.514E-02
RMM:   3    -0.230461754592E+04   -0.77358E-05   -0.59649E-04  4057   0.190E-02    0.331E-02
RMM:   4    -0.230461753737E+04    0.85426E-05   -0.12396E-04  3527   0.738E-03    0.176E-02
RMM:   5    -0.230461753490E+04    0.24714E-05   -0.18258E-05  2832   0.535E-03
  56 F= -.23246033E+04 E0= -.23246033E+04  d E =-.358700E-03  mag=     2.0000
       N       E                     dE             d eps       ncg     rms          rms(c)
DAV:   1    -0.230461748907E+04    0.48308E-04   -0.10036E-02  4792   0.102E-01    0.317E-02
RMM:   2    -0.230461755839E+04   -0.69325E-04   -0.74166E-04  5407   0.181E-02    0.151E-02
RMM:   3    -0.230461755930E+04   -0.91398E-06   -0.48109E-05  2829   0.766E-03
  57 F= -.23246033E+04 E0= -.23246033E+04  d E =-.362362E-03  mag=     2.0000
       N       E                     dE             d eps       ncg     rms          rms(c)
DAV:   1    -0.230461700359E+04    0.55481E-03   -0.14311E-01  4376   0.382E-01    0.118E-01
RMM:   2    -0.230461800109E+04   -0.99751E-03   -0.10757E-02  5575   0.658E-02    0.547E-02
RMM:   3    -0.230461801548E+04   -0.14393E-04   -0.78551E-04  4148   0.214E-02    0.357E-02
RMM:   4    -0.230461800583E+04    0.96522E-05   -0.15200E-04  3520   0.768E-03    0.204E-02
RMM:   5    -0.230461800073E+04    0.50974E-05   -0.25745E-05  2852   0.563E-03
  58 F= -.23246037E+04 E0= -.23246037E+04  d E =-.319644E-03  mag=     2.0000
       N       E                     dE             d eps       ncg     rms          rms(c)
DAV:   1    -0.230461797260E+04    0.33237E-04   -0.67948E-03  5000   0.835E-02    0.265E-02
RMM:   2    -0.230461802170E+04   -0.49100E-04   -0.52939E-04  5255   0.153E-02    0.125E-02
RMM:   3    -0.230461802198E+04   -0.28593E-06   -0.30102E-05  2824   0.636E-03
  59 F= -.23246036E+04 E0= -.23246036E+04  d E =-.314029E-03  mag=     2.0000
       N       E                     dE             d eps       ncg     rms          rms(c)
DAV:   1    -0.230461746785E+04    0.55384E-03   -0.12309E-01  4376   0.353E-01    0.109E-01
RMM:   2    -0.230461843787E+04   -0.97002E-03   -0.10325E-02  5680   0.627E-02    0.513E-02
RMM:   3    -0.230461846141E+04   -0.23539E-04   -0.75672E-04  3923   0.197E-02    0.339E-02
RMM:   4    -0.230461845425E+04    0.71535E-05   -0.13654E-04  3211   0.698E-03    0.197E-02
RMM:   5    -0.230461845001E+04    0.42398E-05   -0.23409E-05  2855   0.509E-03
  60 F= -.23246040E+04 E0= -.23246040E+04  d E =-.336665E-03  mag=     2.0000
       N       E                     dE             d eps       ncg     rms          rms(c)
DAV:   1    -0.230461829234E+04    0.16191E-03   -0.25818E-02  4496   0.162E-01    0.507E-02
RMM:   2    -0.230461849766E+04   -0.20532E-03   -0.21855E-03  5739   0.295E-02    0.236E-02
RMM:   3    -0.230461850169E+04   -0.40312E-05   -0.13890E-04  3011   0.109E-02    0.150E-02
RMM:   4    -0.230461849996E+04    0.17311E-05   -0.26037E-05  2821   0.351E-03
  61 F= -.23246040E+04 E0= -.23246040E+04  d E =-.344583E-03  mag=     2.0000
       N       E                     dE             d eps       ncg     rms          rms(c)
DAV:   1    -0.230461786445E+04    0.63725E-03   -0.12263E-01  4368   0.348E-01    0.108E-01
RMM:   2    -0.230461894159E+04   -0.10771E-02   -0.11411E-02  5830   0.630E-02    0.526E-02
RMM:   3    -0.230461897893E+04   -0.37343E-04   -0.83927E-04  3970   0.203E-02    0.348E-02
RMM:   4    -0.230461897277E+04    0.61591E-05   -0.14413E-04  3005   0.679E-03    0.206E-02
RMM:   5    -0.230461896796E+04    0.48076E-05   -0.24733E-05  2858   0.492E-03
  62 F= -.23246044E+04 E0= -.23246044E+04  d E =-.365598E-03  mag=     2.0000
       N       E                     dE             d eps       ncg     rms          rms(c)
DAV:   1    -0.230461869491E+04    0.27786E-03   -0.38753E-02  4448   0.196E-01    0.617E-02
RMM:   2    -0.230461904286E+04   -0.34795E-03   -0.36887E-03  5939   0.365E-02    0.299E-02
RMM:   3    -0.230461905078E+04   -0.79188E-05   -0.22655E-04  3158   0.121E-02    0.188E-02
RMM:   4    -0.230461904814E+04    0.26438E-05   -0.40215E-05  2824   0.414E-03
  63 F= -.23246044E+04 E0= -.23246044E+04  d E =-.388141E-03  mag=     2.0000
       N       E                     dE             d eps       ncg     rms          rms(c)
DAV:   1    -0.230461831669E+04    0.73409E-03   -0.13485E-01  4368   0.362E-01    0.116E-01
RMM:   2    -0.230461948497E+04   -0.11683E-02   -0.12442E-02  5811   0.647E-02    0.555E-02
RMM:   3    -0.230461952155E+04   -0.36582E-04   -0.88656E-04  4037   0.228E-02    0.360E-02
RMM:   4    -0.230461951298E+04    0.85712E-05   -0.15401E-04  3183   0.718E-03    0.210E-02
RMM:   5    -0.230461950800E+04    0.49804E-05   -0.27447E-05  2846   0.538E-03
  64 F= -.23246047E+04 E0= -.23246047E+04  d E =-.332834E-03  mag=     2.0000
       N       E                     dE             d eps       ncg     rms          rms(c)
DAV:   1    -0.230461945606E+04    0.56920E-04   -0.95843E-03  4880   0.966E-02    0.318E-02
RMM:   2    -0.230461954149E+04   -0.85438E-04   -0.91583E-04  5503   0.184E-02    0.154E-02
RMM:   3    -0.230461954314E+04   -0.16500E-05   -0.53880E-05  2862   0.734E-03
  65 F= -.23246047E+04 E0= -.23246047E+04  d E =-.333866E-03  mag=     2.0000
       N       E                     dE             d eps       ncg     rms          rms(c)
DAV:   1    -0.230461915830E+04    0.38319E-03   -0.10296E-01  4368   0.316E-01    0.101E-01
RMM:   2    -0.230461995857E+04   -0.80027E-03   -0.85542E-03  5609   0.549E-02    0.494E-02
RMM:   3    -0.230461997679E+04   -0.18222E-04   -0.59795E-04  3870   0.184E-02    0.320E-02
RMM:   4    -0.230461997100E+04    0.57842E-05   -0.11456E-04  3185   0.661E-03    0.186E-02
RMM:   5    -0.230461996725E+04    0.37538E-05   -0.19275E-05  2829   0.501E-03
  66 F= -.23246051E+04 E0= -.23246051E+04  d E =-.345023E-03  mag=     2.0000
       N       E                     dE             d eps       ncg     rms          rms(c)
DAV:   1    -0.230461985234E+04    0.11867E-03   -0.19929E-02  4560   0.139E-01    0.451E-02
RMM:   2    -0.230462001185E+04   -0.15951E-03   -0.17043E-03  5662   0.253E-02    0.218E-02
RMM:   3    -0.230462001482E+04   -0.29652E-05   -0.10263E-04  2928   0.963E-03    0.136E-02
RMM:   4    -0.230462001327E+04    0.15465E-05   -0.19941E-05  2817   0.326E-03
  67 F= -.23246051E+04 E0= -.23246051E+04  d E =-.356213E-03  mag=     2.0000
       N       E                     dE             d eps       ncg     rms          rms(c)
DAV:   1    -0.230461954579E+04    0.46902E-03   -0.11115E-01  4368   0.331E-01    0.105E-01
RMM:   2    -0.230462037412E+04   -0.82833E-03   -0.88720E-03  5664   0.564E-02    0.486E-02
RMM:   3    -0.230462039004E+04   -0.15922E-04   -0.56701E-04  3910   0.197E-02    0.310E-02
RMM:   4    -0.230462038383E+04    0.62084E-05   -0.10784E-04  3122   0.651E-03    0.178E-02
RMM:   5    -0.230462038064E+04    0.31954E-05   -0.18557E-05  2830   0.502E-03
  68 F= -.23246054E+04 E0= -.23246054E+04  d E =-.298890E-03  mag=     2.0000
       N       E                     dE             d eps       ncg     rms          rms(c)
DAV:   1    -0.230462030740E+04    0.76434E-04   -0.13195E-02  4712   0.114E-01    0.368E-02
RMM:   2    -0.230462040857E+04   -0.10117E-03   -0.10811E-03  5511   0.209E-02    0.173E-02
RMM:   3    -0.230462041105E+04   -0.24782E-05   -0.70164E-05  2865   0.844E-03
  69 F= -.23246054E+04 E0= -.23246054E+04  d E =-.305646E-03  mag=     2.0000
       N       E                     dE             d eps       ncg     rms          rms(c)
DAV:   1    -0.230462002964E+04    0.37894E-03   -0.10327E-01  4368   0.322E-01    0.104E-01
RMM:   2    -0.230462077360E+04   -0.74397E-03   -0.80948E-03  5538   0.559E-02    0.501E-02
RMM:   3    -0.230462078065E+04   -0.70437E-05   -0.56781E-04  3978   0.205E-02    0.323E-02
RMM:   4    -0.230462077218E+04    0.84659E-05   -0.11987E-04  3448   0.701E-03    0.179E-02
RMM:   5    -0.230462076831E+04    0.38738E-05   -0.19993E-05  2824   0.525E-03
  70 F= -.23246057E+04 E0= -.23246057E+04  d E =-.289590E-03  mag=     2.0000
       N       E                     dE             d eps       ncg     rms          rms(c)
DAV:   1    -0.230462076543E+04    0.67542E-05   -0.75138E-04  5176   0.279E-02    0.100E-02
RMM:   2    -0.230462077142E+04   -0.59905E-05   -0.66995E-05  3017   0.578E-03
  71 F= -.23246057E+04 E0= -.23246057E+04  d E =-.286759E-03  mag=     2.0000
       N       E                     dE             d eps       ncg     rms          rms(c)
DAV:   1    -0.230462051067E+04    0.25476E-03   -0.73122E-02  4376   0.274E-01    0.882E-02
RMM:   2    -0.230462104447E+04   -0.53380E-03   -0.57652E-03  5940   0.496E-02    0.425E-02
RMM:   3    -0.230462105165E+04   -0.71786E-05   -0.40531E-04  3743   0.175E-02    0.263E-02
RMM:   4    -0.230462104426E+04    0.73874E-05   -0.69653E-05  2976   0.595E-03
  72 F= -.23246059E+04 E0= -.23246059E+04  d E =-.237045E-03  mag=     2.0000
       N       E                     dE             d eps       ncg     rms          rms(c)
DAV:   1    -0.230462103132E+04    0.20332E-04   -0.22381E-03  5312   0.483E-02    0.170E-02
RMM:   2    -0.230462104776E+04   -0.16445E-04   -0.18338E-04  4026   0.977E-03    0.884E-03
RMM:   3    -0.230462104861E+04   -0.84589E-06   -0.18325E-05  2759   0.491E-03
  73 F= -.23246059E+04 E0= -.23246059E+04  d E =-.234948E-03  mag=     2.0000
       N       E                     dE             d eps       ncg     rms          rms(c)
DAV:   1    -0.230462086028E+04    0.18748E-03   -0.74215E-02  4376   0.278E-01    0.889E-02
RMM:   2    -0.230462135263E+04   -0.49235E-03   -0.53840E-03  5554   0.483E-02    0.411E-02
RMM:   3    -0.230462135081E+04    0.18187E-05   -0.34251E-04  3665   0.168E-02    0.259E-02
RMM:   4    -0.230462134389E+04    0.69183E-05   -0.77282E-05  3202   0.623E-03
  74 F= -.23246061E+04 E0= -.23246061E+04  d E =-.236063E-03  mag=     2.0000
       N       E                     dE             d eps       ncg     rms          rms(c)
DAV:   1    -0.230462133334E+04    0.17472E-04   -0.31080E-03  5192   0.572E-02    0.198E-02
RMM:   2    -0.230462135408E+04   -0.20747E-04   -0.23096E-04  4496   0.112E-02    0.101E-02
RMM:   3    -0.230462135509E+04   -0.10058E-05   -0.23765E-05  2801   0.527E-03
  75 F= -.23246061E+04 E0= -.23246061E+04  d E =-.234890E-03  mag=     2.0000
       N       E                     dE             d eps       ncg     rms          rms(c)
DAV:   1    -0.230462122316E+04    0.13092E-03   -0.70182E-02  4376   0.268E-01    0.832E-02
RMM:   2    -0.230462165020E+04   -0.42704E-03   -0.47069E-03  5541   0.455E-02    0.407E-02
RMM:   3    -0.230462164289E+04    0.73152E-05   -0.26774E-04  3570   0.157E-02    0.253E-02
RMM:   4    -0.230462163484E+04    0.80500E-05   -0.67090E-05  3232   0.618E-03
  76 F= -.23246063E+04 E0= -.23246063E+04  d E =-.211416E-03  mag=     2.0000
       N       E                     dE             d eps       ncg     rms          rms(c)
DAV:   1    -0.230462163399E+04    0.88940E-05   -0.14242E-03  5312   0.387E-02    0.136E-02
RMM:   2    -0.230462164257E+04   -0.85823E-05   -0.99969E-05  3449   0.779E-03
  77 F= -.23246063E+04 E0= -.23246063E+04  d E =-.209146E-03  mag=     2.0000
       N       E                     dE             d eps       ncg     rms          rms(c)
DAV:   1    -0.230462159310E+04    0.40890E-04   -0.59106E-02  4376   0.248E-01    0.818E-02
RMM:   2    -0.230462189199E+04   -0.29889E-03   -0.33375E-03  5889   0.438E-02    0.370E-02
RMM:   3    -0.230462188985E+04    0.21426E-05   -0.28017E-04  3655   0.154E-02    0.229E-02
RMM:   4    -0.230462188501E+04    0.48398E-05   -0.47865E-05  2921   0.526E-03
  78 F= -.23246066E+04 E0= -.23246066E+04  d E =-.213999E-03  mag=     2.0000
       N       E                     dE             d eps       ncg     rms          rms(c)
DAV:   1    -0.230462187260E+04    0.17249E-04   -0.38228E-03  5136   0.632E-02    0.215E-02
RMM:   2    -0.230462189214E+04   -0.19535E-04   -0.22217E-04  4519   0.120E-02    0.102E-02
RMM:   3    -0.230462189223E+04   -0.92201E-07   -0.19334E-05  2802   0.552E-03
  79 F= -.23246066E+04 E0= -.23246066E+04  d E =-.213886E-03  mag=     2.0000
       N       E                     dE             d eps       ncg     rms          rms(c)
DAV:   1    -0.230462191130E+04   -0.19162E-04   -0.41107E-02  4376   0.205E-01    0.635E-02
RMM:   2    -0.230462212648E+04   -0.21519E-03   -0.23492E-03  5544   0.337E-02    0.308E-02
RMM:   3    -0.230462212076E+04    0.57192E-05   -0.11742E-04  3151   0.110E-02    0.189E-02
RMM:   4    -0.230462211775E+04    0.30158E-05   -0.32548E-05  2880   0.487E-03
  80 F= -.23246068E+04 E0= -.23246068E+04  d E =-.198055E-03  mag=     2.0000
       N       E                     dE             d eps       ncg     rms          rms(c)
DAV:   1    -0.230462208302E+04    0.37740E-04   -0.14924E-02  4512   0.124E-01    0.388E-02
RMM:   2    -0.230462216253E+04   -0.79505E-04   -0.86232E-04  5568   0.216E-02    0.186E-02
RMM:   3    -0.230462216260E+04   -0.67521E-07   -0.60423E-05  2864   0.843E-03
  81 F= -.23246068E+04 E0= -.23246068E+04  d E =-.226371E-03  mag=     2.0000
       N       E                     dE             d eps       ncg     rms          rms(c)
DAV:   1    -0.230462220385E+04   -0.41320E-04   -0.47338E-02  4400   0.224E-01    0.784E-02
RMM:   2    -0.230462241584E+04   -0.21199E-03   -0.24431E-03  5406   0.370E-02    0.338E-02
RMM:   3    -0.230462240147E+04    0.14371E-04   -0.13170E-04  3416   0.135E-02    0.201E-02
RMM:   4    -0.230462239711E+04    0.43579E-05   -0.44631E-05  3201   0.559E-03
  82 F= -.23246070E+04 E0= -.23246070E+04  d E =-.205291E-03  mag=     2.0000
       N       E                     dE             d eps       ncg     rms          rms(c)
DAV:   1    -0.230462239641E+04    0.50553E-05   -0.79646E-04  5336   0.297E-02    0.110E-02
RMM:   2    -0.230462240047E+04   -0.40555E-05   -0.46853E-05  2995   0.596E-03
  83 F= -.23246070E+04 E0= -.23246070E+04  d E =-.204752E-03  mag=     2.0000
       N       E                     dE             d eps       ncg     rms          rms(c)
DAV:   1    -0.230462243993E+04   -0.43513E-04   -0.32629E-02  4376   0.186E-01    0.616E-02
RMM:   2    -0.230462257777E+04   -0.13784E-03   -0.15572E-03  5763   0.325E-02    0.281E-02
RMM:   3    -0.230462257193E+04    0.58443E-05   -0.11366E-04  3258   0.119E-02    0.167E-02
RMM:   4    -0.230462256955E+04    0.23800E-05   -0.22169E-05  2826   0.440E-03
  84 F= -.23246071E+04 E0= -.23246071E+04  d E =-.157854E-03  mag=     2.0000
       N       E                     dE             d eps       ncg     rms          rms(c)
DAV:   1    -0.230462256256E+04    0.93703E-05   -0.38950E-03  4984   0.645E-02    0.217E-02
RMM:   2    -0.230462257928E+04   -0.16718E-04   -0.18756E-04  4497   0.119E-02    0.101E-02
RMM:   3    -0.230462257915E+04    0.12420E-06   -0.15944E-05  2793   0.569E-03
  85 F= -.23246072E+04 E0= -.23246072E+04  d E =-.163560E-03  mag=     2.0000
       N       E                     dE             d eps       ncg     rms          rms(c)
DAV:   1    -0.230462264482E+04   -0.65544E-04   -0.34602E-02  4376   0.193E-01    0.655E-02
RMM:   2    -0.230462276716E+04   -0.12235E-03   -0.14486E-03  5443   0.318E-02    0.279E-02
RMM:   3    -0.230462275702E+04    0.10140E-04   -0.93342E-05  3220   0.113E-02    0.170E-02
RMM:   4    -0.230462275377E+04    0.32576E-05   -0.31260E-05  2945   0.496E-03
  86 F= -.23246073E+04 E0= -.23246073E+04  d E =-.151266E-03  mag=     2.0000
       N       E                     dE             d eps       ncg     rms          rms(c)
DAV:   1    -0.230462275337E+04    0.36524E-05   -0.46018E-04  5152   0.228E-02    0.856E-03
RMM:   2    -0.230462275518E+04   -0.18039E-05   -0.23443E-05  2701   0.468E-03
  87 F= -.23246073E+04 E0= -.23246073E+04  d E =-.149903E-03  mag=     2.0000
       N       E                     dE             d eps       ncg     rms          rms(c)
DAV:   1    -0.230462281367E+04   -0.60298E-04   -0.31191E-02  4376   0.181E-01    0.589E-02
RMM:   2    -0.230462292755E+04   -0.11388E-03   -0.13310E-03  5662   0.307E-02    0.271E-02
RMM:   3    -0.230462292044E+04    0.71106E-05   -0.10058E-04  3317   0.124E-02    0.165E-02
RMM:   4    -0.230462291766E+04    0.27848E-05   -0.25163E-05  2822   0.447E-03
  88 F= -.23246074E+04 E0= -.23246074E+04  d E =-.149159E-03  mag=     2.0000
       N       E                     dE             d eps       ncg     rms          rms(c)
DAV:   1    -0.230462291553E+04    0.49156E-05   -0.13541E-03  5288   0.379E-02    0.133E-02
RMM:   2    -0.230462292064E+04   -0.51098E-05   -0.61363E-05  3250   0.740E-03
  89 F= -.23246074E+04 E0= -.23246074E+04  d E =-.149332E-03  mag=     2.0000
       N       E                     dE             d eps       ncg     rms          rms(c)
DAV:   1    -0.230462299491E+04   -0.79379E-04   -0.26074E-02  4376   0.165E-01    0.532E-02
RMM:   2    -0.230462309542E+04   -0.10052E-03   -0.11610E-03  5823   0.297E-02    0.257E-02
RMM:   3    -0.230462308831E+04    0.71102E-05   -0.83952E-05  3062   0.977E-03
  90 F= -.23246076E+04 E0= -.23246076E+04  d E =-.148584E-03  mag=     2.0000
       N       E                     dE             d eps       ncg     rms          rms(c)
DAV:   1    -0.230462308743E+04    0.79946E-05   -0.26289E-03  5152   0.524E-02    0.198E-02
RMM:   2    -0.230462309664E+04   -0.92088E-05   -0.12187E-04  3900   0.952E-03    0.107E-02
RMM:   3    -0.230462309591E+04    0.72778E-06   -0.10970E-05  2787   0.491E-03
  91 F= -.23246076E+04 E0= -.23246076E+04  d E =-.149978E-03  mag=     2.0000
       N       E                     dE             d eps       ncg     rms          rms(c)
DAV:   1    -0.230462314924E+04   -0.52605E-04   -0.30173E-02  4408   0.179E-01    0.587E-02
RMM:   2    -0.230462326063E+04   -0.11139E-03   -0.12814E-03  5542   0.297E-02    0.257E-02
RMM:   3    -0.230462325430E+04    0.63316E-05   -0.88905E-05  3098   0.108E-02
  92 F= -.23246077E+04 E0= -.23246077E+04  d E =-.147233E-03  mag=     2.0000
       N       E                     dE             d eps       ncg     rms          rms(c)
DAV:   1    -0.230462324218E+04    0.18452E-04   -0.62611E-03  4840   0.813E-02    0.289E-02
RMM:   2    -0.230462326499E+04   -0.22811E-04   -0.27931E-04  4969   0.141E-02    0.146E-02
RMM:   3    -0.230462326316E+04    0.18225E-05   -0.21255E-05  2804   0.605E-03
  93 F= -.23246078E+04 E0= -.23246078E+04  d E =-.150968E-03  mag=     2.0000
       N       E                     dE             d eps       ncg     rms          rms(c)
DAV:   1    -0.230462332429E+04   -0.59306E-04   -0.31940E-02  4368   0.181E-01    0.576E-02
RMM:   2    -0.230462344344E+04   -0.11915E-03   -0.13613E-03  5512   0.300E-02    0.277E-02
RMM:   3    -0.230462343639E+04    0.70547E-05   -0.98024E-05  3000   0.103E-02
  94 F= -.23246079E+04 E0= -.23246079E+04  d E =-.151096E-03  mag=     2.0000
       N       E                     dE             d eps       ncg     rms          rms(c)
DAV:   1    -0.230462342450E+04    0.18944E-04   -0.68971E-03  4752   0.843E-02    0.294E-02
RMM:   2    -0.230462344913E+04   -0.24630E-04   -0.30628E-04  5086   0.146E-02    0.156E-02
RMM:   3    -0.230462344719E+04    0.19404E-05   -0.25436E-05  2807   0.640E-03
  95 F= -.23246079E+04 E0= -.23246079E+04  d E =-.151472E-03  mag=     2.0000
       N       E                     dE             d eps       ncg     rms          rms(c)
DAV:   1    -0.230462351883E+04   -0.69699E-04   -0.28389E-02  4376   0.168E-01    0.541E-02
RMM:   2    -0.230462360526E+04   -0.86430E-04   -0.10009E-03  5409   0.272E-02    0.252E-02
RMM:   3    -0.230462359891E+04    0.63505E-05   -0.67998E-05  2964   0.971E-03
  96 F= -.23246081E+04 E0= -.23246081E+04  d E =-.153050E-03  mag=     2.0000
       N       E                     dE             d eps       ncg     rms          rms(c)
DAV:   1    -0.230462356081E+04    0.44446E-04   -0.22098E-02  4448   0.148E-01    0.488E-02
RMM:   2    -0.230462362683E+04   -0.66022E-04   -0.78513E-04  5336   0.237E-02    0.239E-02
RMM:   3    -0.230462362083E+04    0.60032E-05   -0.52459E-05  2915   0.977E-03
  97 F= -.23246081E+04 E0= -.23246081E+04  d E =-.176350E-03  mag=     2.0000
       N       E                     dE             d eps       ncg     rms          rms(c)
DAV:   1    -0.230462370500E+04   -0.78169E-04   -0.25882E-02  4416   0.158E-01    0.505E-02
RMM:   2    -0.230462377537E+04   -0.70368E-04   -0.83320E-04  5289   0.255E-02    0.258E-02
RMM:   3    -0.230462376962E+04    0.57531E-05   -0.57530E-05  3003   0.995E-03
  98 F= -.23246082E+04 E0= -.23246082E+04  d E =-.162315E-03  mag=     2.0000
       N       E                     dE             d eps       ncg     rms          rms(c)
DAV:   1    -0.230462374882E+04    0.26551E-04   -0.15757E-02  4576   0.123E-01    0.405E-02
RMM:   2    -0.230462379067E+04   -0.41850E-04   -0.51068E-04  5150   0.195E-02    0.212E-02
RMM:   3    -0.230462378575E+04    0.49235E-05   -0.32727E-05  2846   0.836E-03
  99 F= -.23246083E+04 E0= -.23246083E+04  d E =-.189243E-03  mag=     2.0000
       N       E                     dE             d eps       ncg     rms          rms(c)
DAV:   1    -0.230462389442E+04   -0.10375E-03   -0.34166E-02  4376   0.184E-01    0.630E-02
RMM:   2    -0.230462397928E+04   -0.84864E-04   -0.10625E-03  5227   0.296E-02    0.288E-02
RMM:   3    -0.230462396699E+04    0.12293E-04   -0.65871E-05  3251   0.115E-02    0.168E-02
RMM:   4    -0.230462396451E+04    0.24841E-05   -0.29742E-05  2996   0.508E-03
 100 F= -.23246084E+04 E0= -.23246084E+04  d E =-.173321E-03  mag=     2.0000
       N       E                     dE             d eps       ncg     rms          rms(c)
DAV:   1    -0.230462396315E+04    0.38380E-05   -0.17361E-03  5200   0.418E-02    0.147E-02
RMM:   2    -0.230462396796E+04   -0.48026E-05   -0.58316E-05  3357   0.789E-03
 101 F= -.23246084E+04 E0= -.23246084E+04  d E =-.175573E-03  mag=     2.0000
       N       E                     dE             d eps       ncg     rms          rms(c)
DAV:   1    -0.230462407302E+04   -0.10986E-03   -0.19118E-02  4376   0.137E-01    0.492E-02
RMM:   2    -0.230462412135E+04   -0.48339E-04   -0.62417E-04  5519   0.245E-02    0.233E-02
RMM:   3    -0.230462411233E+04    0.90276E-05   -0.41904E-05  2988   0.882E-03
 102 F= -.23246086E+04 E0= -.23246086E+04  d E =-.140490E-03  mag=     2.0000
       N       E                     dE             d eps       ncg     rms          rms(c)
DAV:   1    -0.230462411156E+04    0.97952E-05   -0.20596E-03  5224   0.451E-02    0.176E-02
RMM:   2    -0.230462411602E+04   -0.44571E-05   -0.66492E-05  3519   0.831E-03
 103 F= -.23246086E+04 E0= -.23246086E+04  d E =-.142891E-03  mag=     2.0000
       N       E                     dE             d eps       ncg     rms          rms(c)
DAV:   1    -0.230462420240E+04   -0.90845E-04   -0.16128E-02  4376   0.127E-01    0.485E-02
RMM:   2    -0.230462423922E+04   -0.36817E-04   -0.49489E-04  5309   0.229E-02    0.220E-02
RMM:   3    -0.230462423157E+04    0.76463E-05   -0.33855E-05  2990   0.870E-03
 104 F= -.23246087E+04 E0= -.23246087E+04  d E =-.118423E-03  mag=     2.0000
       N       E                     dE             d eps       ncg     rms          rms(c)
DAV:   1    -0.230462422951E+04    0.97073E-05   -0.80546E-04  5392   0.285E-02    0.134E-02
RMM:   2    -0.230462423060E+04   -0.10886E-05   -0.24887E-05  2859   0.530E-03
 105 F= -.23246087E+04 E0= -.23246087E+04  d E =-.118136E-03  mag=     2.0000
       N       E                     dE             d eps       ncg     rms          rms(c)
DAV:   1    -0.230462430810E+04   -0.78592E-04   -0.13434E-02  4376   0.116E-01    0.437E-02
RMM:   2    -0.230462433649E+04   -0.28381E-04   -0.39821E-04  5190   0.206E-02    0.198E-02
RMM:   3    -0.230462432921E+04    0.72737E-05   -0.28520E-05  2928   0.875E-03
 106 F= -.23246088E+04 E0= -.23246088E+04  d E =-.909218E-04  mag=     2.0000
       N       E                     dE             d eps       ncg     rms          rms(c)
DAV:   1    -0.230462432684E+04    0.96483E-05   -0.39093E-04  5240   0.203E-02    0.887E-03
RMM:   2    -0.230462432766E+04   -0.81967E-06   -0.15693E-05  2764   0.425E-03
 107 F= -.23246088E+04 E0= -.23246088E+04  d E =-.879543E-04  mag=     2.0000
       N       E                     dE             d eps       ncg     rms          rms(c)
DAV:   1    -0.230462440667E+04   -0.79827E-04   -0.12174E-02  4376   0.110E-01    0.413E-02
RMM:   2    -0.230462442901E+04   -0.22341E-04   -0.32068E-04  4921   0.188E-02    0.185E-02
RMM:   3    -0.230462442323E+04    0.57806E-05   -0.22338E-05  2895   0.845E-03
 108 F= -.23246089E+04 E0= -.23246089E+04  d E =-.833948E-04  mag=     2.0000
       N       E                     dE             d eps       ncg     rms          rms(c)
DAV:   1    -0.230462442337E+04    0.56322E-05   -0.53120E-04  5376   0.231E-02    0.973E-03
RMM:   2    -0.230462442410E+04   -0.72143E-06   -0.14280E-05  2683   0.433E-03
 109 F= -.23246089E+04 E0= -.23246089E+04  d E =-.815467E-04  mag=     2.0000
       N       E                     dE             d eps       ncg     rms          rms(c)
DAV:   1    -0.230462450311E+04   -0.79739E-04   -0.13104E-02  4376   0.113E-01    0.422E-02
RMM:   2    -0.230462452562E+04   -0.22508E-04   -0.32012E-04  4695   0.193E-02    0.182E-02
RMM:   3    -0.230462451990E+04    0.57166E-05   -0.21994E-05  2922   0.861E-03
 110 F= -.23246090E+04 E0= -.23246090E+04  d E =-.914817E-04  mag=     2.0000
       N       E                     dE             d eps       ncg     rms          rms(c)
DAV:   1    -0.230462451821E+04    0.74135E-05   -0.16613E-03  5208   0.405E-02    0.149E-02
RMM:   2    -0.230462452068E+04   -0.24729E-05   -0.37763E-05  3184   0.714E-03
 111 F= -.23246090E+04 E0= -.23246090E+04  d E =-.906630E-04  mag=     2.0000
       N       E                     dE             d eps       ncg     rms          rms(c)
DAV:   1    -0.230462459979E+04   -0.81587E-04   -0.12138E-02  4376   0.107E-01    0.399E-02
RMM:   2    -0.230462462039E+04   -0.20598E-04   -0.29152E-04  4707   0.191E-02    0.184E-02
RMM:   3    -0.230462461552E+04    0.48708E-05   -0.19519E-05  2851   0.751E-03
 112 F= -.23246091E+04 E0= -.23246091E+04  d E =-.975567E-04  mag=     2.0000
       N       E                     dE             d eps       ncg     rms          rms(c)
DAV:   1    -0.230462461533E+04    0.50644E-05   -0.27206E-03  5016   0.508E-02    0.187E-02
RMM:   2    -0.230462461933E+04   -0.40062E-05   -0.58967E-05  3531   0.887E-03
 113 F= -.23246091E+04 E0= -.23246091E+04  d E =-.102715E-03  mag=     2.0000
       N       E                     dE             d eps       ncg     rms          rms(c)
DAV:   1    -0.230462470942E+04   -0.94094E-04   -0.12338E-02  4376   0.108E-01    0.408E-02
RMM:   2    -0.230462473125E+04   -0.21829E-04   -0.31171E-04  4865   0.196E-02    0.191E-02
RMM:   3    -0.230462472575E+04    0.54974E-05   -0.20571E-05  2863   0.766E-03
 114 F= -.23246092E+04 E0= -.23246092E+04  d E =-.959367E-04  mag=     2.0000
       N       E                     dE             d eps       ncg     rms          rms(c)
DAV:   1    -0.230462472831E+04    0.29446E-05   -0.12633E-03  5272   0.348E-02    0.128E-02
RMM:   2    -0.230462473028E+04   -0.19706E-05   -0.30010E-05  3034   0.640E-03
 115 F= -.23246092E+04 E0= -.23246092E+04  d E =-.969779E-04  mag=     2.0000
       N       E                     dE             d eps       ncg     rms          rms(c)
DAV:   1    -0.230462483006E+04   -0.10175E-03   -0.13022E-02  4376   0.112E-01    0.422E-02
RMM:   2    -0.230462485264E+04   -0.22579E-04   -0.31649E-04  4848   0.196E-02    0.190E-02
RMM:   3    -0.230462484714E+04    0.55013E-05   -0.21207E-05  2883   0.788E-03
 116 F= -.23246093E+04 E0= -.23246093E+04  d E =-.949488E-04  mag=     2.0000
       N       E                     dE             d eps       ncg     rms          rms(c)
DAV:   1    -0.230462485527E+04   -0.26315E-05   -0.16408E-03  5184   0.396E-02    0.149E-02
RMM:   2    -0.230462485767E+04   -0.24059E-05   -0.35383E-05  3131   0.703E-03
 117 F= -.23246093E+04 E0= -.23246093E+04  d E =-.974534E-04  mag=     2.0000
       N       E                     dE             d eps       ncg     rms          rms(c)
DAV:   1    -0.230462493350E+04   -0.78227E-04   -0.13976E-02  4376   0.114E-01    0.440E-02
RMM:   2    -0.230462495682E+04   -0.23320E-04   -0.33504E-04  4773   0.202E-02    0.201E-02
RMM:   3    -0.230462495091E+04    0.59035E-05   -0.22678E-05  2894   0.795E-03
 118 F= -.23246094E+04 E0= -.23246094E+04  d E =-.931221E-04  mag=     2.0000
       N       E                     dE             d eps       ncg     rms          rms(c)
DAV:   1    -0.230462494924E+04    0.75769E-05   -0.73953E-04  5344   0.265E-02    0.102E-02
RMM:   2    -0.230462495042E+04   -0.11812E-05   -0.18565E-05  2768   0.498E-03
 119 F= -.23246094E+04 E0= -.23246094E+04  d E =-.926218E-04  mag=     2.0000
       N       E                     dE             d eps       ncg     rms          rms(c)
DAV:   1    -0.230462501719E+04   -0.67953E-04   -0.14138E-02  4376   0.115E-01    0.440E-02
RMM:   2    -0.230462503986E+04   -0.22667E-04   -0.33285E-04  4699   0.196E-02    0.199E-02
RMM:   3    -0.230462503372E+04    0.61386E-05   -0.23592E-05  2926   0.868E-03
 120 F= -.23246094E+04 E0= -.23246094E+04  d E =-.885865E-04  mag=     2.0000
       N       E                     dE             d eps       ncg     rms          rms(c)
DAV:   1    -0.230462503054E+04    0.93220E-05   -0.54095E-04  5304   0.228E-02    0.889E-03
RMM:   2    -0.230462503138E+04   -0.84024E-06   -0.14041E-05  2641   0.436E-03
 121 F= -.23246094E+04 E0= -.23246094E+04  d E =-.873661E-04  mag=     2.0000
       N       E                     dE             d eps       ncg     rms          rms(c)
DAV:   1    -0.230462511260E+04   -0.82062E-04   -0.13264E-02  4376   0.111E-01    0.427E-02
RMM:   2    -0.230462513420E+04   -0.21600E-04   -0.30748E-04  4676   0.187E-02    0.187E-02
RMM:   3    -0.230462512904E+04    0.51620E-05   -0.22718E-05  2898   0.873E-03
 122 F= -.23246095E+04 E0= -.23246095E+04  d E =-.872494E-04  mag=     2.0000
       N       E                     dE             d eps       ncg     rms          rms(c)
DAV:   1    -0.230462513034E+04    0.38569E-05   -0.20042E-03  5128   0.434E-02    0.164E-02
RMM:   2    -0.230462513350E+04   -0.31547E-05   -0.43749E-05  3244   0.762E-03
 123 F= -.23246095E+04 E0= -.23246095E+04  d E =-.875366E-04  mag=     2.0000
       N       E                     dE             d eps       ncg     rms          rms(c)
DAV:   1    -0.230462522146E+04   -0.91117E-04   -0.11101E-02  4376   0.996E-02    0.376E-02
RMM:   2    -0.230462524017E+04   -0.18712E-04   -0.26314E-04  4664   0.179E-02    0.182E-02
RMM:   3    -0.230462523619E+04    0.39821E-05   -0.19106E-05  2830   0.740E-03
 124 F= -.23246096E+04 E0= -.23246096E+04  d E =-.865518E-04  mag=     2.0000
       N       E                     dE             d eps       ncg     rms          rms(c)
DAV:   1    -0.230462524857E+04   -0.83994E-05   -0.43055E-03  4736   0.619E-02    0.232E-02
RMM:   2    -0.230462525514E+04   -0.65686E-05   -0.95280E-05  4019   0.108E-02
 125 F= -.23246096E+04 E0= -.23246096E+04  d E =-.953061E-04  mag=     2.0000
       N       E                     dE             d eps       ncg     rms          rms(c)
DAV:   1    -0.230462534302E+04   -0.94450E-04   -0.12519E-02  4376   0.106E-01    0.415E-02
RMM:   2    -0.230462536583E+04   -0.22812E-04   -0.31786E-04  4964   0.188E-02    0.204E-02
RMM:   3    -0.230462536059E+04    0.52409E-05   -0.21391E-05  2845   0.759E-03
 126 F= -.23246097E+04 E0= -.23246097E+04  d E =-.108026E-03  mag=     2.0000
       N       E                     dE             d eps       ncg     rms          rms(c)
DAV:   1    -0.230462535954E+04    0.62888E-05   -0.41159E-03  4872   0.607E-02    0.226E-02
RMM:   2    -0.230462536644E+04   -0.68949E-05   -0.95153E-05  4040   0.105E-02
 127 F= -.23246097E+04 E0= -.23246097E+04  d E =-.115463E-03  mag=     2.0000
       N       E                     dE             d eps       ncg     rms          rms(c)
DAV:   1    -0.230462543068E+04   -0.71137E-04   -0.14491E-02  4368   0.113E-01    0.449E-02
RMM:   2    -0.230462545516E+04   -0.24481E-04   -0.35125E-04  4906   0.198E-02    0.215E-02
RMM:   3    -0.230462544920E+04    0.59563E-05   -0.24300E-05  2882   0.799E-03
 128 F= -.23246098E+04 E0= -.23246098E+04  d E =-.897304E-04  mag=     2.0000
       N       E                     dE             d eps       ncg     rms          rms(c)
DAV:   1    -0.230462544629E+04    0.88735E-05   -0.19414E-03  5248   0.413E-02    0.157E-02
RMM:   2    -0.230462544946E+04   -0.31701E-05   -0.42529E-05  3195   0.732E-03
 129 F= -.23246098E+04 E0= -.23246098E+04  d E =-.926513E-04  mag=     2.0000
       N       E                     dE             d eps       ncg     rms          rms(c)
DAV:   1    -0.230462552455E+04   -0.78259E-04   -0.12972E-02  4376   0.106E-01    0.420E-02
RMM:   2    -0.230462554599E+04   -0.21445E-04   -0.31455E-04  4739   0.191E-02    0.205E-02
RMM:   3    -0.230462554046E+04    0.55291E-05   -0.22383E-05  2874   0.786E-03
 130 F= -.23246099E+04 E0= -.23246099E+04  d E =-.104300E-03  mag=     2.0000
       N       E                     dE             d eps       ncg     rms          rms(c)
DAV:   1    -0.230462553551E+04    0.10484E-04   -0.12133E-03  5216   0.326E-02    0.129E-02
RMM:   2    -0.230462553738E+04   -0.18717E-05   -0.29254E-05  2984   0.613E-03
 131 F= -.23246099E+04 E0= -.23246099E+04  d E =-.105494E-03  mag=     2.0000
       N       E                     dE             d eps       ncg     rms          rms(c)
DAV:   1    -0.230462558837E+04   -0.52866E-04   -0.14321E-02  4376   0.112E-01    0.451E-02
RMM:   2    -0.230462561223E+04   -0.23859E-04   -0.34549E-04  4799   0.198E-02    0.207E-02
RMM:   3    -0.230462560621E+04    0.60235E-05   -0.25119E-05  2911   0.831E-03
 132 F= -.23246100E+04 E0= -.23246100E+04  d E =-.846796E-04  mag=     2.0000
       N       E                     dE             d eps       ncg     rms          rms(c)
DAV:   1    -0.230462560107E+04    0.11159E-04   -0.41622E-04  5192   0.195E-02    0.817E-03
RMM:   2    -0.230462560184E+04   -0.76756E-06   -0.11527E-05  2606   0.389E-03
 133 F= -.23246100E+04 E0= -.23246100E+04  d E =-.832242E-04  mag=     2.0000
       N       E                     dE             d eps       ncg     rms          rms(c)
DAV:   1    -0.230462565032E+04   -0.49248E-04   -0.14128E-02  4376   0.112E-01    0.433E-02
RMM:   2    -0.230462567305E+04   -0.22733E-04   -0.33343E-04  4701   0.186E-02    0.201E-02
RMM:   3    -0.230462566717E+04    0.58882E-05   -0.24501E-05  2905   0.913E-03
 134 F= -.23246101E+04 E0= -.23246101E+04  d E =-.835833E-04  mag=     2.0000
       N       E                     dE             d eps       ncg     rms          rms(c)
DAV:   1    -0.230462566021E+04    0.12846E-04   -0.62736E-04  5288   0.238E-02    0.960E-03
RMM:   2    -0.230462566129E+04   -0.10853E-05   -0.16741E-05  2746   0.459E-03
 135 F= -.23246101E+04 E0= -.23246101E+04  d E =-.818511E-04  mag=     2.0000
       N       E                     dE             d eps       ncg     rms          rms(c)
DAV:   1    -0.230462571546E+04   -0.55256E-04   -0.12920E-02  4376   0.106E-01    0.409E-02
RMM:   2    -0.230462573779E+04   -0.22325E-04   -0.31229E-04  4721   0.184E-02    0.195E-02
RMM:   3    -0.230462573255E+04    0.52365E-05   -0.22567E-05  2895   0.824E-03
 136 F= -.23246102E+04 E0= -.23246102E+04  d E =-.751534E-04  mag=     2.0000
       N       E                     dE             d eps       ncg     rms          rms(c)
DAV:   1    -0.230462572941E+04    0.83843E-05   -0.48096E-04  5152   0.208E-02    0.838E-03
RMM:   2    -0.230462573025E+04   -0.84093E-06   -0.13002E-05  2641   0.409E-03
 137 F= -.23246102E+04 E0= -.23246102E+04  d E =-.736608E-04  mag=     2.0000
       N       E                     dE             d eps       ncg     rms          rms(c)
DAV:   1    -0.230462578596E+04   -0.56560E-04   -0.12135E-02  4376   0.106E-01    0.425E-02
RMM:   2    -0.230462580566E+04   -0.19693E-04   -0.30174E-04  4640   0.183E-02    0.187E-02
RMM:   3    -0.230462579993E+04    0.57228E-05   -0.24256E-05  2912   0.900E-03
 138 F= -.23246103E+04 E0= -.23246103E+04  d E =-.779797E-04  mag=     2.0000
       N       E                     dE             d eps       ncg     rms          rms(c)
DAV:   1    -0.230462579473E+04    0.10929E-04   -0.53156E-04  5320   0.226E-02    0.910E-03
RMM:   2    -0.230462579569E+04   -0.96424E-06   -0.15598E-05  2706   0.445E-03
 139 F= -.23246103E+04 E0= -.23246103E+04  d E =-.756257E-04  mag=     2.0000
       N       E                     dE             d eps       ncg     rms          rms(c)
DAV:   1    -0.230462581781E+04   -0.23084E-04   -0.10688E-02  4368   0.960E-02    0.374E-02
RMM:   2    -0.230462583634E+04   -0.18529E-04   -0.26116E-04  4587   0.170E-02    0.183E-02
RMM:   3    -0.230462583211E+04    0.42316E-05   -0.20039E-05  2858   0.793E-03
 140 F= -.23246103E+04 E0= -.23246103E+04  d E =-.658261E-04  mag=     2.0000
       N       E                     dE             d eps       ncg     rms          rms(c)
DAV:   1    -0.230462582828E+04    0.80616E-05   -0.68446E-05  4984   0.841E-03    0.457E-03
RMM:   2    -0.230462582841E+04   -0.13378E-06   -0.38800E-06  2418   0.221E-03
 141 F= -.23246103E+04 E0= -.23246103E+04  d E =-.647712E-04  mag=     2.0000
       N       E                     dE             d eps       ncg     rms          rms(c)
DAV:   1    -0.230462584676E+04   -0.18485E-04   -0.11687E-02  4368   0.104E-01    0.432E-02
RMM:   2    -0.230462586545E+04   -0.18685E-04   -0.29943E-04  4518   0.167E-02    0.195E-02
RMM:   3    -0.230462585944E+04    0.60086E-05   -0.24442E-05  2907   0.104E-02
 142 F= -.23246104E+04 E0= -.23246104E+04  d E =-.667166E-04  mag=     2.0000
       N       E                     dE             d eps       ncg     rms          rms(c)
DAV:   1    -0.230462585624E+04    0.92102E-05   -0.16508E-05  3744   0.564E-03    0.476E-03
RMM:   2    -0.230462585620E+04    0.40018E-07   -0.38087E-06  2572   0.287E-03
 143 F= -.23246104E+04 E0= -.23246104E+04  d E =-.646775E-04  mag=     2.0000
       N       E                     dE             d eps       ncg     rms          rms(c)
DAV:   1    -0.230462585791E+04   -0.16711E-05   -0.88858E-06  3096   0.338E-03    0.223E-03
RMM:   2    -0.230462585797E+04   -0.62049E-07   -0.94443E-07  2016   0.176E-03
 144 F= -.23246104E+04 E0= -.23246104E+04  d E =-.654320E-04  mag=     2.0000
       N       E                     dE             d eps       ncg     rms          rms(c)
DAV:   1    -0.230462587876E+04   -0.20853E-04   -0.70661E-03  4376   0.813E-02    0.320E-02
RMM:   2    -0.230462589200E+04   -0.13236E-04   -0.19066E-04  4500   0.131E-02    0.147E-02
RMM:   3    -0.230462588845E+04    0.35522E-05   -0.12654E-05  2794   0.704E-03
 145 F= -.23246104E+04 E0= -.23246104E+04  d E =-.434373E-04  mag=     2.0000
       N       E                     dE             d eps       ncg     rms          rms(c)
DAV:   1    -0.230462588747E+04    0.45293E-05   -0.86119E-06  3648   0.403E-03    0.359E-03
RMM:   2    -0.230462588736E+04    0.10902E-06   -0.19743E-06  2387   0.224E-03
 146 F= -.23246104E+04 E0= -.23246104E+04  d E =-.425372E-04  mag=     2.0000
       N       E                     dE             d eps       ncg     rms          rms(c)
DAV:   1    -0.230462591088E+04   -0.23411E-04   -0.69166E-03  4376   0.815E-02    0.333E-02
RMM:   2    -0.230462592261E+04   -0.11725E-04   -0.18676E-04  4456   0.137E-02    0.150E-02
RMM:   3    -0.230462591912E+04    0.34880E-05   -0.16498E-05  2815   0.837E-03
 147 F= -.23246105E+04 E0= -.23246105E+04  d E =-.428842E-04  mag=     2.0000
       N       E                     dE             d eps       ncg     rms          rms(c)
DAV:   1    -0.230462592145E+04    0.11516E-05   -0.10468E-04  5064   0.105E-02    0.558E-03
RMM:   2    -0.230462592163E+04   -0.17634E-06   -0.59680E-06  2402   0.249E-03
 148 F= -.23246105E+04 E0= -.23246105E+04  d E =-.443331E-04  mag=     2.0000
       N       E                     dE             d eps       ncg     rms          rms(c)
DAV:   1    -0.230462592134E+04    0.10952E-06   -0.60836E-03  4376   0.764E-02    0.306E-02
RMM:   2    -0.230462593234E+04   -0.10994E-04   -0.16216E-04  4354   0.133E-02    0.135E-02
RMM:   3    -0.230462592985E+04    0.24864E-05   -0.13195E-05  2813   0.738E-03
 149 F= -.23246105E+04 E0= -.23246105E+04  d E =-.369054E-04  mag=     2.0000
       N       E                     dE             d eps       ncg     rms          rms(c)
DAV:   1    -0.230462593316E+04   -0.82336E-06   -0.72461E-05  5040   0.888E-03    0.449E-03
RMM:   2    -0.230462593317E+04   -0.88476E-08   -0.33199E-06  2318   0.205E-03
 150 F= -.23246105E+04 E0= -.23246105E+04  d E =-.378531E-04  mag=     2.0000
