       N       E                     dE             d eps       ncg     rms          rms(c)
DAV:   1     0.128830593540E+05    0.12883E+05   -0.83620E+05  4504   0.144E+03
DAV:   2    -0.105604895846E+04   -0.13939E+05   -0.13313E+05  5120   0.330E+02
DAV:   3    -0.247814005975E+04   -0.14221E+04   -0.14070E+04  5400   0.112E+02
DAV:   4    -0.252324399138E+04   -0.45104E+02   -0.44867E+02  6768   0.297E+01
DAV:   5    -0.252402452084E+04   -0.78053E+00   -0.77929E+00  5992   0.335E+00    0.171E+02
RMM:   6    -0.149136665344E+04    0.10327E+04   -0.19575E+03  4437   0.388E+01    0.745E+01
RMM:   7    -0.166896739066E+04   -0.17760E+03   -0.30803E+02  5083   0.147E+01    0.574E+01
RMM:   8    -0.170153510568E+04   -0.32568E+02   -0.88491E+01  5177   0.871E+00    0.425E+01
RMM:   9    -0.177273953707E+04   -0.71204E+02   -0.71466E+01  5003   0.727E+00    0.361E+01
RMM:  10    -0.190563163033E+04   -0.13289E+03   -0.62872E+01  5131   0.769E+00    0.217E+01
RMM:  11    -0.201820259124E+04   -0.11257E+03   -0.53359E+01  5056   0.613E+00    0.172E+01
RMM:  12    -0.210662458188E+04   -0.88422E+02   -0.41561E+01  4796   0.499E+00    0.180E+01
RMM:  13    -0.215308853720E+04   -0.46464E+02   -0.18495E+01  5119   0.352E+00    0.133E+01
RMM:  14    -0.224519334986E+04   -0.92105E+02   -0.67433E+01  4471   0.597E+00    0.988E+00
RMM:  15    -0.229345866507E+04   -0.48265E+02   -0.41926E+01  4647   0.477E+00    0.479E+00
RMM:  16    -0.230894282125E+04   -0.15484E+02   -0.17718E+01  4734   0.311E+00    0.285E+00
RMM:  17    -0.231293451129E+04   -0.39917E+01   -0.50150E+00  5063   0.137E+00    0.231E+00
RMM:  18    -0.231455970219E+04   -0.16252E+01   -0.13247E+00  4934   0.807E-01    0.206E+00
RMM:  19    -0.231510473991E+04   -0.54504E+00   -0.26886E-01  5039   0.356E-01    0.371E+00
RMM:  20    -0.231512975420E+04   -0.25014E-01   -0.10041E-01  4782   0.199E-01    0.194E+00
RMM:  21    -0.231540688169E+04   -0.27713E+00   -0.10696E-01  4465   0.205E-01    0.924E-01
RMM:  22    -0.231551308366E+04   -0.10620E+00   -0.42488E-02  4515   0.154E-01    0.774E-01
RMM:  23    -0.231556335422E+04   -0.50271E-01   -0.30185E-02  4588   0.114E-01    0.912E-01
RMM:  24    -0.231555870878E+04    0.46454E-02   -0.15800E-02  4661   0.940E-02    0.129E+00
RMM:  25    -0.231552056239E+04    0.38146E-01   -0.15734E-02  4718   0.663E-02    0.183E+00
RMM:  26    -0.231555905227E+04   -0.38490E-01   -0.64082E-03  4382   0.432E-02    0.137E+00
RMM:  27    -0.231559245379E+04   -0.33402E-01   -0.93538E-03  4477   0.453E-02    0.952E-01
RMM:  28    -0.231563230597E+04   -0.39852E-01   -0.25020E-02  4502   0.824E-02    0.853E-01
RMM:  29    -0.231563649816E+04   -0.41922E-02   -0.27510E-03  4200   0.391E-02    0.855E-01
RMM:  30    -0.231565335647E+04   -0.16858E-01   -0.52785E-03  4440   0.316E-02    0.167E+00
RMM:  31    -0.231564396668E+04    0.93898E-02   -0.18865E-03  4171   0.264E-02    0.117E+00
RMM:  32    -0.231563505527E+04    0.89114E-02   -0.90686E-03  4515   0.417E-02    0.829E-01
RMM:  33    -0.231562740164E+04    0.76536E-02   -0.87489E-03  4517   0.462E-02    0.107E+00
RMM:  34    -0.231562012591E+04    0.72757E-02   -0.40142E-03  4264   0.311E-02    0.130E+00
RMM:  35    -0.231561509156E+04    0.50343E-02   -0.12372E-03  4334   0.156E-02    0.144E+00
RMM:  36    -0.231562923238E+04   -0.14141E-01   -0.36771E-03  4187   0.249E-02    0.109E+00
RMM:  37    -0.231564882298E+04   -0.19591E-01   -0.17030E-02  4524   0.540E-02    0.860E-01
RMM:  38    -0.231567119454E+04   -0.22372E-01   -0.17518E-02  4613   0.555E-02    0.187E+00
RMM:  39    -0.231570237518E+04   -0.31181E-01   -0.99027E-03  4613   0.412E-02    0.299E+00
RMM:  40    -0.231570318301E+04   -0.80784E-03   -0.12215E-03  3895   0.248E-02    0.311E+00
RMM:  41    -0.231569811825E+04    0.50648E-02   -0.24788E-04  3303   0.104E-02    0.305E+00
RMM:  42    -0.231569943886E+04   -0.13206E-02   -0.37602E-05  2911   0.419E-03    0.308E+00
RMM:  43    -0.231568817858E+04    0.11260E-01   -0.36821E-04  3154   0.721E-03    0.274E+00
RMM:  44    -0.231568745725E+04    0.72133E-03   -0.35345E-04  3456   0.895E-03    0.260E+00
RMM:  45    -0.231568094687E+04    0.65104E-02   -0.85557E-04  3974   0.128E-02    0.223E+00
RMM:  46    -0.231566408406E+04    0.16863E-01   -0.31695E-03  4180   0.232E-02    0.124E+00
RMM:  47    -0.231565929437E+04    0.47897E-02   -0.13299E-03  3818   0.210E-02    0.808E-01
RMM:  48    -0.231565894060E+04    0.35377E-03   -0.37149E-04  3464   0.119E-02    0.734E-01
RMM:  49    -0.231565911838E+04   -0.17778E-03   -0.35033E-04  3551   0.946E-03    0.760E-01
RMM:  50    -0.231565437265E+04    0.47457E-02   -0.19867E-03  4289   0.180E-02    0.630E-01
RMM:  51    -0.231564915771E+04    0.52149E-02   -0.33880E-03  4469   0.243E-02    0.603E-01
RMM:  52    -0.231564361301E+04    0.55447E-02   -0.30887E-03  4355   0.231E-02    0.680E-01
RMM:  53    -0.231564122327E+04    0.23897E-02   -0.82795E-04  3703   0.132E-02    0.732E-01
RMM:  54    -0.231563823892E+04    0.29843E-02   -0.63464E-04  3724   0.109E-02    0.806E-01
RMM:  55    -0.231563435851E+04    0.38804E-02   -0.68416E-04  3600   0.123E-02    0.909E-01
RMM:  56    -0.231562990747E+04    0.44510E-02   -0.67784E-04  3595   0.117E-02    0.101E+00
RMM:  57    -0.231562796741E+04    0.19401E-02   -0.19218E-04  3127   0.772E-03    0.106E+00
RMM:  58    -0.231562789654E+04    0.70868E-04   -0.26635E-05  2806   0.329E-03    0.106E+00
RMM:  59    -0.231562784054E+04    0.55994E-04   -0.27374E-06  2532   0.191E-03    0.106E+00
RMM:  60    -0.231562774753E+04    0.93014E-04   -0.19229E-06  2424   0.137E-03    0.107E+00
RMM:  61    -0.231562809832E+04   -0.35079E-03   -0.15481E-05  2634   0.189E-03    0.107E+00
RMM:  62    -0.231562881604E+04   -0.71772E-03   -0.17551E-05  2558   0.210E-03    0.106E+00
RMM:  63    -0.231562875242E+04    0.63616E-04   -0.99761E-07  2216   0.127E-03    0.106E+00
RMM:  64    -0.231563084806E+04   -0.20956E-02   -0.10480E-04  2941   0.390E-03    0.102E+00
RMM:  65    -0.231563628597E+04   -0.54379E-02   -0.82968E-04  3504   0.106E-02    0.947E-01
RMM:  66    -0.231564413113E+04   -0.78452E-02   -0.24165E-03  3902   0.188E-02    0.851E-01
RMM:  67    -0.231564607282E+04   -0.19417E-02   -0.46754E-04  3224   0.113E-02    0.834E-01
RMM:  68    -0.231564628921E+04   -0.21639E-03   -0.94472E-05  2949   0.432E-03    0.835E-01
RMM:  69    -0.231564657323E+04   -0.28401E-03   -0.12627E-05  2664   0.281E-03    0.839E-01
RMM:  70    -0.231564682271E+04   -0.24948E-03   -0.76818E-06  2534   0.189E-03    0.838E-01
RMM:  71    -0.231564992857E+04   -0.31059E-02   -0.62559E-04  3566   0.998E-03    0.834E-01
RMM:  72    -0.231565419552E+04   -0.42670E-02   -0.14312E-03  4080   0.153E-02    0.899E-01
RMM:  73    -0.231565885738E+04   -0.46619E-02   -0.16347E-03  3998   0.159E-02    0.108E+00
RMM:  74    -0.231565977356E+04   -0.91618E-03   -0.23425E-04  3134   0.874E-03    0.114E+00
RMM:  75    -0.231565808834E+04    0.16852E-02   -0.69566E-05  2939   0.528E-03    0.104E+00
RMM:  76    -0.231565954903E+04   -0.14607E-02   -0.95513E-05  2944   0.470E-03    0.110E+00
RMM:  77    -0.231566061892E+04   -0.10699E-02   -0.60423E-05  2862   0.401E-03    0.116E+00
RMM:  78    -0.231566077604E+04   -0.15712E-03   -0.20731E-05  2759   0.323E-03    0.116E+00
RMM:  79    -0.231565931062E+04    0.14654E-02   -0.58761E-05  2730   0.370E-03    0.108E+00
RMM:  80    -0.231565709746E+04    0.22132E-02   -0.23591E-04  3132   0.615E-03    0.970E-01
RMM:  81    -0.231565811257E+04   -0.10151E-02   -0.13463E-04  3026   0.579E-03    0.105E+00
RMM:  82    -0.231565318429E+04    0.49283E-02   -0.13483E-03  3973   0.144E-02    0.862E-01
RMM:  83    -0.231565077677E+04    0.24075E-02   -0.83319E-04  3663   0.128E-02    0.832E-01
RMM:  84    -0.231564945799E+04    0.13188E-02   -0.41436E-04  3361   0.881E-03    0.828E-01
RMM:  85    -0.231564634640E+04    0.31116E-02   -0.81871E-04  3906   0.120E-02    0.847E-01
RMM:  86    -0.231564709083E+04   -0.74443E-03   -0.22734E-04  3234   0.842E-03    0.890E-01
RMM:  87    -0.231564737779E+04   -0.28696E-03   -0.25533E-05  2830   0.389E-03    0.887E-01
RMM:  88    -0.231564755632E+04   -0.17853E-03   -0.50840E-06  2480   0.193E-03    0.885E-01
RMM:  89    -0.231564754785E+04    0.84752E-05   -0.79929E-07  2366   0.133E-03
   1 F= -.23365985E+04 E0= -.23365930E+04  d E =-.233660E+04  mag=     7.1830
       N       E                     dE             d eps       ncg     rms          rms(c)
DAV:   1    -0.231579063945E+04   -0.14308E+00   -0.32072E+00  4672   0.164E+00    0.118E+00
RMM:   2    -0.231583564205E+04   -0.45003E-01   -0.33022E-01  5811   0.371E-01    0.157E+00
RMM:   3    -0.231584134396E+04   -0.57019E-02   -0.27757E-02  5357   0.130E-01    0.205E+00
RMM:   4    -0.231582481510E+04    0.16529E-01   -0.46110E-02  4848   0.965E-02    0.160E+00
RMM:   5    -0.231581517777E+04    0.96373E-02   -0.11752E-02  5703   0.579E-02    0.768E-01
RMM:   6    -0.231581139978E+04    0.37780E-02   -0.41859E-03  5311   0.364E-02    0.773E-01
RMM:   7    -0.231580852839E+04    0.28714E-02   -0.22856E-03  5220   0.247E-02    0.875E-01
RMM:   8    -0.231580125876E+04    0.72696E-02   -0.20438E-03  4638   0.242E-02    0.963E-01
RMM:   9    -0.231579294695E+04    0.83118E-02   -0.19818E-03  4327   0.230E-02    0.116E+00
RMM:  10    -0.231578705607E+04    0.58909E-02   -0.91824E-04  4107   0.158E-02    0.127E+00
RMM:  11    -0.231581322802E+04   -0.26172E-01   -0.15533E-02  4410   0.494E-02    0.797E-01
RMM:  12    -0.231582141010E+04   -0.81821E-02   -0.60286E-03  4221   0.383E-02    0.854E-01
RMM:  13    -0.231582157198E+04   -0.16188E-03   -0.75287E-04  3746   0.145E-02    0.863E-01
RMM:  14    -0.231582185736E+04   -0.28538E-03   -0.64607E-05  3055   0.512E-03    0.884E-01
RMM:  15    -0.231582238180E+04   -0.52444E-03   -0.28808E-04  3815   0.797E-03    0.828E-01
RMM:  16    -0.231582192404E+04    0.45775E-03   -0.46757E-04  3982   0.969E-03    0.726E-01
RMM:  17    -0.231582075462E+04    0.11694E-02   -0.43752E-04  3857   0.983E-03    0.651E-01
RMM:  18    -0.231581786088E+04    0.28937E-02   -0.97154E-04  4311   0.145E-02    0.574E-01
RMM:  19    -0.231581310131E+04    0.47596E-02   -0.18850E-03  4228   0.193E-02    0.636E-01
RMM:  20    -0.231581142799E+04    0.16733E-02   -0.40419E-04  3428   0.114E-02    0.669E-01
RMM:  21    -0.231581292889E+04   -0.15009E-02   -0.76710E-05  3000   0.540E-03    0.638E-01
RMM:  22    -0.231581750436E+04   -0.45755E-02   -0.13693E-03  4013   0.152E-02    0.591E-01
RMM:  23    -0.231582886784E+04   -0.11363E-01   -0.70033E-03  4402   0.342E-02    0.100E+00
RMM:  24    -0.231582823010E+04    0.63774E-03   -0.43863E-04  3619   0.175E-02    0.100E+00
RMM:  25    -0.231582815767E+04    0.72428E-04   -0.79713E-05  2998   0.531E-03    0.101E+00
RMM:  26    -0.231582814721E+04    0.10463E-04   -0.53730E-06  2780   0.289E-03    0.101E+00
RMM:  27    -0.231582749307E+04    0.65414E-03   -0.14372E-05  2626   0.214E-03    0.973E-01
RMM:  28    -0.231582758775E+04   -0.94683E-04   -0.16149E-06  2369   0.139E-03    0.976E-01
RMM:  29    -0.231582778630E+04   -0.19855E-03   -0.13459E-06  2085   0.997E-04    0.988E-01
RMM:  30    -0.231582809629E+04   -0.30999E-03   -0.30651E-05  2937   0.350E-03    0.999E-01
RMM:  31    -0.231582891383E+04   -0.81754E-03   -0.13103E-04  3454   0.601E-03    0.103E+00
RMM:  32    -0.231582595526E+04    0.29586E-02   -0.39686E-04  3622   0.967E-03    0.886E-01
RMM:  33    -0.231582488481E+04    0.10705E-02   -0.74371E-04  4587   0.145E-02    0.854E-01
RMM:  34    -0.231582007449E+04    0.48103E-02   -0.27308E-03  5254   0.253E-02    0.711E-01
RMM:  35    -0.231581633480E+04    0.37397E-02   -0.20244E-03  4507   0.203E-02    0.690E-01
RMM:  36    -0.231581447247E+04    0.18623E-02   -0.71069E-04  3694   0.137E-02    0.709E-01
RMM:  37    -0.231581005965E+04    0.44128E-02   -0.16045E-03  4377   0.165E-02    0.787E-01
RMM:  38    -0.231581154284E+04   -0.14832E-02   -0.10686E-04  3047   0.790E-03    0.754E-01
RMM:  39    -0.231581199404E+04   -0.45120E-03   -0.41804E-05  2871   0.362E-03    0.741E-01
RMM:  40    -0.231581329100E+04   -0.12970E-02   -0.18500E-04  3299   0.647E-03    0.717E-01
RMM:  41    -0.231582038565E+04   -0.70946E-02   -0.52305E-03  4815   0.315E-02    0.741E-01
RMM:  42    -0.231582265044E+04   -0.22648E-02   -0.13776E-03  4266   0.202E-02    0.829E-01
RMM:  43    -0.231582030837E+04    0.23421E-02   -0.38397E-04  3481   0.102E-02    0.761E-01
RMM:  44    -0.231582287333E+04   -0.25650E-02   -0.30459E-04  3333   0.832E-03    0.838E-01
RMM:  45    -0.231582451364E+04   -0.16403E-02   -0.27726E-04  3588   0.885E-03    0.899E-01
RMM:  46    -0.231582497594E+04   -0.46230E-03   -0.50364E-05  2966   0.548E-03    0.920E-01
RMM:  47    -0.231582515488E+04   -0.17895E-03   -0.21026E-05  2743   0.277E-03    0.928E-01
RMM:  48    -0.231582423477E+04    0.92011E-03   -0.99609E-05  3122   0.521E-03    0.880E-01
RMM:  49    -0.231582604597E+04   -0.18112E-02   -0.26780E-04  3896   0.872E-03    0.951E-01
RMM:  50    -0.231582580104E+04    0.24493E-03   -0.15990E-05  2884   0.533E-03    0.943E-01
RMM:  51    -0.231582559531E+04    0.20573E-03   -0.48156E-06  2624   0.189E-03    0.938E-01
RMM:  52    -0.231582537617E+04    0.21915E-03   -0.30880E-04  3947   0.854E-03    0.969E-01
RMM:  53    -0.231581758018E+04    0.77960E-02   -0.39901E-03  4482   0.255E-02    0.792E-01
RMM:  54    -0.231581255412E+04    0.50261E-02   -0.25814E-03  4320   0.230E-02    0.859E-01
RMM:  55    -0.231581408572E+04   -0.15316E-02   -0.14957E-04  3127   0.853E-03    0.832E-01
RMM:  56    -0.231581619101E+04   -0.21053E-02   -0.35351E-04  3319   0.843E-03    0.805E-01
RMM:  57    -0.231582727282E+04   -0.11082E-01   -0.85831E-03  4528   0.361E-02    0.109E+00
RMM:  58    -0.231583296481E+04   -0.56920E-02   -0.23502E-03  4107   0.236E-02    0.138E+00
RMM:  59    -0.231582658892E+04    0.63759E-02   -0.98858E-04  3869   0.161E-02    0.109E+00
RMM:  60    -0.231582095596E+04    0.56330E-02   -0.20974E-03  4064   0.181E-02    0.863E-01
RMM:  61    -0.231581819600E+04    0.27600E-02   -0.90160E-04  3954   0.149E-02    0.821E-01
RMM:  62    -0.231581271860E+04    0.54774E-02   -0.27904E-03  4412   0.212E-02    0.862E-01
RMM:  63    -0.231581208197E+04    0.63663E-03   -0.27959E-04  3262   0.103E-02    0.875E-01
RMM:  64    -0.231581207026E+04    0.11717E-04   -0.47038E-05  2905   0.366E-03    0.874E-01
RMM:  65    -0.231581185874E+04    0.21152E-03   -0.80337E-06  2759   0.257E-03    0.879E-01
RMM:  66    -0.231581164709E+04    0.21164E-03   -0.82602E-06  2562   0.194E-03    0.884E-01
RMM:  67    -0.231580892988E+04    0.27172E-02   -0.47927E-04  3952   0.986E-03    0.956E-01
RMM:  68    -0.231580879767E+04    0.13221E-03   -0.30727E-05  2904   0.509E-03    0.959E-01
RMM:  69    -0.231580892531E+04   -0.12765E-03   -0.42492E-06  2677   0.173E-03    0.956E-01
RMM:  70    -0.231580894276E+04   -0.17447E-04   -0.72314E-07  2325   0.132E-03    0.955E-01
RMM:  71    -0.231580881508E+04    0.12767E-03   -0.14875E-06  1945   0.934E-04    0.960E-01
RMM:  72    -0.231580807252E+04    0.74256E-03   -0.32272E-05  2668   0.250E-03    0.979E-01
RMM:  73    -0.231580808938E+04   -0.16860E-04   -0.18630E-06  2100   0.143E-03    0.978E-01
RMM:  74    -0.231580812800E+04   -0.38612E-04   -0.30061E-07  1360   0.671E-04    0.977E-01
RMM:  75    -0.231580821757E+04   -0.89577E-04   -0.61672E-07  1445   0.765E-04    0.973E-01
RMM:  76    -0.231580857922E+04   -0.36165E-03   -0.81263E-06  2046   0.139E-03    0.962E-01
RMM:  77    -0.231580829186E+04    0.28737E-03   -0.58170E-06  2224   0.141E-03    0.969E-01
RMM:  78    -0.231580915363E+04   -0.86178E-03   -0.36028E-05  2583   0.276E-03    0.944E-01
RMM:  79    -0.231581133568E+04   -0.21820E-02   -0.29692E-04  3277   0.703E-03    0.890E-01
RMM:  80    -0.231581632095E+04   -0.49853E-02   -0.17443E-03  4193   0.169E-02    0.817E-01
RMM:  81    -0.231582678187E+04   -0.10461E-01   -0.73148E-03  4579   0.351E-02    0.107E+00
RMM:  82    -0.231583126604E+04   -0.44842E-02   -0.19291E-03  4112   0.214E-02    0.130E+00
RMM:  83    -0.231583494124E+04   -0.36752E-02   -0.90134E-04  3891   0.126E-02    0.150E+00
RMM:  84    -0.231583566192E+04   -0.72067E-03   -0.11080E-04  3061   0.805E-03    0.156E+00
RMM:  85    -0.231583574615E+04   -0.84237E-04   -0.27081E-05  2892   0.382E-03    0.157E+00
RMM:  86    -0.231583553347E+04    0.21268E-03   -0.28202E-06  2698   0.226E-03    0.156E+00
RMM:  87    -0.231582891351E+04    0.66200E-02   -0.10555E-03  3803   0.129E-02    0.122E+00
RMM:  88    -0.231582421123E+04    0.47023E-02   -0.11641E-03  3863   0.149E-02    0.981E-01
RMM:  89    -0.231581822054E+04    0.59907E-02   -0.28133E-03  4359   0.217E-02    0.825E-01
RMM:  90    -0.231581733715E+04    0.88339E-03   -0.40042E-04  3419   0.116E-02    0.815E-01
RMM:  91    -0.231581735835E+04   -0.21199E-04   -0.58315E-05  2953   0.444E-03    0.811E-01
RMM:  92    -0.231581936321E+04   -0.20049E-02   -0.26102E-04  3326   0.813E-03    0.825E-01
RMM:  93    -0.231581600138E+04    0.33618E-02   -0.72643E-04  3719   0.115E-02    0.820E-01
RMM:  94    -0.231581161533E+04    0.43860E-02   -0.15398E-03  4139   0.166E-02    0.890E-01
RMM:  95    -0.231580897156E+04    0.26438E-02   -0.78612E-04  3653   0.125E-02    0.959E-01
RMM:  96    -0.231580990198E+04   -0.93042E-03   -0.43435E-05  2911   0.465E-03    0.934E-01
RMM:  97    -0.231581825099E+04   -0.83490E-02   -0.46027E-03  4344   0.270E-02    0.836E-01
RMM:  98    -0.231582017403E+04   -0.19230E-02   -0.79625E-04  3582   0.144E-02    0.855E-01
RMM:  99    -0.231582569422E+04   -0.55202E-02   -0.24994E-03  4356   0.193E-02    0.102E+00
RMM: 100    -0.231583773266E+04   -0.12038E-01   -0.51347E-03  4489   0.291E-02    0.161E+00
RMM: 101    -0.231587052989E+04   -0.32797E-01   -0.11267E-02  4697   0.421E-02    0.280E+00
RMM: 102    -0.231592795434E+04   -0.57424E-01   -0.15501E-02  4725   0.518E-02    0.331E+00
RMM: 103    -0.231592597889E+04    0.19754E-02   -0.13844E-03  4030   0.244E-02    0.333E+00
RMM: 104    -0.231594288914E+04   -0.16910E-01   -0.13105E-03  4256   0.141E-02    0.329E+00
RMM: 105    -0.231594972470E+04   -0.68356E-02   -0.28836E-04  3276   0.861E-03    0.326E+00
RMM: 106    -0.231594955150E+04    0.17320E-03   -0.34968E-05  2904   0.391E-03    0.327E+00
RMM: 107    -0.231590941321E+04    0.40138E-01   -0.43634E-03  4271   0.251E-02    0.334E+00
RMM: 108    -0.231592759762E+04   -0.18184E-01   -0.63698E-04  3782   0.118E-02    0.333E+00
RMM: 109    -0.231592996586E+04   -0.23682E-02   -0.56577E-05  2781   0.491E-03    0.333E+00
RMM: 110    -0.231593140895E+04   -0.14431E-02   -0.23630E-05  2609   0.265E-03    0.332E+00
RMM: 111    -0.231592696271E+04    0.44462E-02   -0.44585E-05  2552   0.298E-03    0.333E+00
RMM: 112    -0.231596648393E+04   -0.39521E-01   -0.40396E-03  4416   0.241E-02    0.318E+00
RMM: 113    -0.231595006837E+04    0.16416E-01   -0.53056E-04  3541   0.112E-02    0.326E+00
RMM: 114    -0.231594968701E+04    0.38136E-03   -0.25382E-05  2727   0.384E-03    0.326E+00
RMM: 115    -0.231593966385E+04    0.10023E-01   -0.32444E-04  3252   0.712E-03    0.330E+00
RMM: 116    -0.231594456537E+04   -0.49015E-02   -0.43013E-05  2643   0.370E-03    0.328E+00
RMM: 117    -0.231587373314E+04    0.70832E-01   -0.15558E-02  4730   0.473E-02    0.307E+00
RMM: 118    -0.231588550539E+04   -0.11772E-01   -0.70629E-04  3692   0.196E-02    0.318E+00
RMM: 119    -0.231588460180E+04    0.90359E-03   -0.11537E-04  3037   0.502E-03    0.318E+00
RMM: 120    -0.231588538383E+04   -0.78203E-03   -0.61462E-06  2697   0.258E-03    0.319E+00
RMM: 121    -0.231588566612E+04   -0.28229E-03   -0.17927E-06  2318   0.128E-03    0.319E+00
RMM: 122    -0.231584970240E+04    0.35964E-01   -0.61196E-03  4531   0.294E-02    0.243E+00
RMM: 123    -0.231584166331E+04    0.80391E-02   -0.18607E-03  4062   0.215E-02    0.200E+00
RMM: 124    -0.231584819055E+04   -0.65272E-02   -0.36211E-04  3520   0.131E-02    0.221E+00
RMM: 125    -0.231585006750E+04   -0.18769E-02   -0.64015E-05  2883   0.482E-03    0.230E+00
RMM: 126    -0.231584940884E+04    0.65866E-03   -0.81720E-06  2493   0.253E-03    0.229E+00
RMM: 127    -0.231584723713E+04    0.21717E-02   -0.53847E-05  2697   0.294E-03    0.220E+00
RMM: 128    -0.231584171311E+04    0.55240E-02   -0.34503E-04  3309   0.722E-03    0.196E+00
RMM: 129    -0.231584040602E+04    0.13071E-02   -0.87548E-05  2933   0.555E-03    0.187E+00
RMM: 130    -0.231583269425E+04    0.77118E-02   -0.11077E-03  3840   0.127E-02    0.145E+00
RMM: 131    -0.231582511527E+04    0.75790E-02   -0.21252E-03  4188   0.193E-02    0.103E+00
RMM: 132    -0.231581584755E+04    0.92677E-02   -0.67296E-03  4588   0.330E-02    0.814E-01
RMM: 133    -0.231580655106E+04    0.92965E-02   -0.74458E-03  4692   0.369E-02    0.101E+00
RMM: 134    -0.231579905757E+04    0.74935E-02   -0.43029E-03  4515   0.270E-02    0.124E+00
RMM: 135    -0.231579689678E+04    0.21608E-02   -0.70533E-04  3681   0.121E-02    0.131E+00
RMM: 136    -0.231579713748E+04   -0.24070E-03   -0.65060E-05  2961   0.456E-03    0.130E+00
RMM: 137    -0.231580240047E+04   -0.52630E-02   -0.95429E-04  3692   0.125E-02    0.114E+00
RMM: 138    -0.231580412002E+04   -0.17196E-02   -0.24560E-04  3170   0.803E-03    0.108E+00
RMM: 139    -0.231580443377E+04   -0.31375E-03   -0.56645E-05  2798   0.358E-03    0.107E+00
RMM: 140    -0.231580412456E+04    0.30921E-03   -0.70059E-06  2319   0.196E-03    0.109E+00
RMM: 141    -0.231580375548E+04    0.36908E-03   -0.11594E-05  2299   0.165E-03    0.110E+00
RMM: 142    -0.231580634758E+04   -0.25921E-02   -0.24937E-04  3172   0.632E-03    0.104E+00
RMM: 143    -0.231581100254E+04   -0.46550E-02   -0.11823E-03  3894   0.140E-02    0.926E-01
RMM: 144    -0.231581468200E+04   -0.36795E-02   -0.11361E-03  3774   0.142E-02    0.868E-01
RMM: 145    -0.231581711510E+04   -0.24331E-02   -0.73897E-04  3637   0.111E-02    0.857E-01
RMM: 146    -0.231581830463E+04   -0.11895E-02   -0.24432E-04  3172   0.730E-03    0.867E-01
RMM: 147    -0.231581875725E+04   -0.45262E-03   -0.33217E-04  3629   0.781E-03    0.805E-01
RMM: 148    -0.231582451037E+04   -0.57531E-02   -0.20823E-03  4220   0.187E-02    0.963E-01
RMM: 149    -0.231583834490E+04   -0.13835E-01   -0.65077E-03  4606   0.325E-02    0.165E+00
RMM: 150    -0.231586870119E+04   -0.30356E-01   -0.97425E-03  4650   0.400E-02    0.279E+00
RMM: 151    -0.231587591927E+04   -0.72181E-02   -0.16666E-03  3912   0.260E-02    0.303E+00
RMM: 152    -0.231587548172E+04    0.43755E-03   -0.33573E-04  3396   0.107E-02    0.305E+00
RMM: 153    -0.231587260803E+04    0.28737E-02   -0.49166E-05  2958   0.565E-03    0.301E+00
RMM: 154    -0.231587290091E+04   -0.29289E-03   -0.13723E-05  2863   0.286E-03    0.301E+00
RMM: 155    -0.231587193552E+04    0.96539E-03   -0.58383E-06  2640   0.193E-03    0.300E+00
RMM: 156    -0.231588299071E+04   -0.11055E-01   -0.52601E-04  3407   0.866E-03    0.316E+00
RMM: 157    -0.231585808749E+04    0.24903E-01   -0.26579E-03  4077   0.198E-02    0.268E+00
RMM: 158    -0.231584339029E+04    0.14697E-01   -0.22929E-03  4048   0.195E-02    0.209E+00
RMM: 159    -0.231583170216E+04    0.11688E-01   -0.31364E-03  4357   0.234E-02    0.144E+00
RMM: 160    -0.231582121053E+04    0.10492E-01   -0.57667E-03  4478   0.310E-02    0.880E-01
RMM: 161    -0.231581334875E+04    0.78618E-02   -0.61561E-03  4533   0.343E-02    0.803E-01
RMM: 162    -0.231581254390E+04    0.80486E-03   -0.10165E-03  3978   0.165E-02    0.842E-01
RMM: 163    -0.231581741833E+04   -0.48744E-02   -0.11744E-03  3877   0.152E-02    0.802E-01
RMM: 164    -0.231582278118E+04   -0.53628E-02   -0.22033E-03  4148   0.198E-02    0.891E-01
RMM: 165    -0.231582455711E+04   -0.17759E-02   -0.51627E-04  3471   0.111E-02    0.957E-01
RMM: 166    -0.231582505752E+04   -0.50041E-03   -0.11150E-04  3014   0.553E-03    0.982E-01
RMM: 167    -0.231582891232E+04   -0.38548E-02   -0.69404E-04  3809   0.107E-02    0.116E+00
RMM: 168    -0.231583301961E+04   -0.41073E-02   -0.64428E-04  3636   0.112E-02    0.138E+00
RMM: 169    -0.231583394122E+04   -0.92161E-03   -0.13456E-04  3036   0.730E-03    0.144E+00
RMM: 170    -0.231583387414E+04    0.67081E-04   -0.23956E-05  2848   0.379E-03    0.145E+00
RMM: 171    -0.231583215839E+04    0.17157E-02   -0.64783E-05  2835   0.404E-03    0.136E+00
RMM: 172    -0.231582694916E+04    0.52092E-02   -0.91962E-04  3790   0.118E-02    0.110E+00
RMM: 173    -0.231582004297E+04    0.69062E-02   -0.28760E-03  4284   0.212E-02    0.834E-01
RMM: 174    -0.231581454503E+04    0.54979E-02   -0.30562E-03  4308   0.231E-02    0.811E-01
RMM: 175    -0.231581381172E+04    0.73331E-03   -0.47875E-04  3471   0.108E-02    0.827E-01
RMM: 176    -0.231581322408E+04    0.58764E-03   -0.13935E-04  3092   0.539E-03    0.840E-01
RMM: 177    -0.231580379373E+04    0.94303E-02   -0.47474E-03  4553   0.278E-02    0.109E+00
RMM: 178    -0.231579815793E+04    0.56358E-02   -0.19252E-03  4085   0.212E-02    0.127E+00
RMM: 179    -0.231579596919E+04    0.21887E-02   -0.60547E-04  3626   0.984E-03    0.133E+00
RMM: 180    -0.231579581200E+04    0.15719E-03   -0.39379E-05  2877   0.467E-03    0.133E+00
RMM: 181    -0.231579639812E+04   -0.58612E-03   -0.13758E-05  2588   0.236E-03    0.131E+00
RMM: 182    -0.231579337208E+04    0.30260E-02   -0.26280E-04  3200   0.658E-03    0.140E+00
RMM: 183    -0.231579401284E+04   -0.64076E-03   -0.10914E-05  2581   0.303E-03    0.139E+00
RMM: 184    -0.231579841560E+04   -0.44028E-02   -0.57309E-04  3468   0.960E-03    0.125E+00
RMM: 185    -0.231580280418E+04   -0.43886E-02   -0.75997E-04  3679   0.120E-02    0.112E+00
RMM: 186    -0.231580572952E+04   -0.29253E-02   -0.50537E-04  3451   0.940E-03    0.105E+00
RMM: 187    -0.231580705937E+04   -0.13298E-02   -0.15211E-04  3037   0.566E-03    0.102E+00
RMM: 188    -0.231580921542E+04   -0.21560E-02   -0.28541E-04  3385   0.734E-03    0.971E-01
RMM: 189    -0.231581090266E+04   -0.16872E-02   -0.19285E-04  3123   0.673E-03    0.941E-01
RMM: 190    -0.231581282033E+04   -0.19177E-02   -0.26873E-04  3292   0.760E-03    0.914E-01
RMM: 191    -0.231581575766E+04   -0.29373E-02   -0.63214E-04  3768   0.109E-02    0.890E-01
RMM: 192    -0.231582086395E+04   -0.51063E-02   -0.19721E-03  4184   0.183E-02    0.940E-01
RMM: 193    -0.231582021186E+04    0.65209E-03   -0.10545E-04  3002   0.840E-03    0.932E-01
RMM: 194    -0.231582000778E+04    0.20408E-03   -0.15329E-05  2726   0.274E-03    0.929E-01
RMM: 195    -0.231582062467E+04   -0.61690E-03   -0.25384E-05  2626   0.250E-03    0.943E-01
RMM: 196    -0.231582061622E+04    0.84515E-05   -0.21176E-06  2408   0.164E-03
   2 F= -.23367710E+04 E0= -.23367620E+04  d E =-.172482E+00  mag=     7.0232
       N       E                     dE             d eps       ncg     rms          rms(c)
DAV:   1    -0.231590231796E+04   -0.81693E-01   -0.38652E+00  4528   0.182E+00    0.139E+00
RMM:   2    -0.231597677179E+04   -0.74454E-01   -0.42131E-01  5800   0.420E-01    0.252E+00
RMM:   3    -0.231597148128E+04    0.52905E-02   -0.33184E-02  5447   0.148E-01    0.209E+00
RMM:   4    -0.231594191271E+04    0.29569E-01   -0.87202E-02  5052   0.122E-01    0.207E+00
RMM:   5    -0.231592596681E+04    0.15946E-01   -0.17168E-02  5695   0.707E-02    0.946E-01
RMM:   6    -0.231591980753E+04    0.61593E-02   -0.65263E-03  5539   0.462E-02    0.802E-01
RMM:   7    -0.231591700390E+04    0.28036E-02   -0.24417E-03  5170   0.252E-02    0.800E-01
RMM:   8    -0.231590776986E+04    0.92340E-02   -0.36840E-03  4556   0.289E-02    0.103E+00
RMM:   9    -0.231589265430E+04    0.15116E-01   -0.47999E-03  4318   0.362E-02    0.131E+00
RMM:  10    -0.231590969376E+04   -0.17039E-01   -0.39186E-03  4096   0.290E-02    0.103E+00
RMM:  11    -0.231593470972E+04   -0.25016E-01   -0.30188E-02  4568   0.754E-02    0.103E+00
RMM:  12    -0.231594194158E+04   -0.72319E-02   -0.67492E-03  4347   0.402E-02    0.139E+00
RMM:  13    -0.231594568004E+04   -0.37385E-02   -0.13801E-03  4311   0.177E-02    0.162E+00
RMM:  14    -0.231593696877E+04    0.87113E-02   -0.12401E-03  3968   0.185E-02    0.110E+00
RMM:  15    -0.231593380424E+04    0.31645E-02   -0.76854E-04  3879   0.136E-02    0.962E-01
RMM:  16    -0.231592755685E+04    0.62474E-02   -0.25397E-03  4349   0.209E-02    0.778E-01
RMM:  17    -0.231592469517E+04    0.28617E-02   -0.10905E-03  3934   0.166E-02    0.773E-01
RMM:  18    -0.231592255411E+04    0.21411E-02   -0.72247E-04  3788   0.116E-02    0.798E-01
RMM:  19    -0.231592159128E+04    0.96282E-03   -0.17397E-04  3153   0.768E-03    0.812E-01
RMM:  20    -0.231592343470E+04   -0.18434E-02   -0.16311E-04  3143   0.627E-03    0.788E-01
RMM:  21    -0.231592611874E+04   -0.26840E-02   -0.56743E-04  3624   0.101E-02    0.771E-01
RMM:  22    -0.231593216626E+04   -0.60475E-02   -0.28420E-03  4308   0.216E-02    0.853E-01
RMM:  23    -0.231593043630E+04    0.17300E-02   -0.19611E-04  3182   0.106E-02    0.826E-01
RMM:  24    -0.231593273763E+04   -0.23013E-02   -0.21727E-04  3117   0.617E-03    0.932E-01
RMM:  25    -0.231592825255E+04    0.44851E-02   -0.14624E-03  4034   0.158E-02    0.864E-01
RMM:  26    -0.231591790337E+04    0.10349E-01   -0.91650E-03  4670   0.390E-02    0.102E+00
RMM:  27    -0.231591603165E+04    0.18717E-02   -0.11518E-03  3971   0.179E-02    0.107E+00
RMM:  28    -0.231591718419E+04   -0.11525E-02   -0.10836E-04  3030   0.490E-03    0.105E+00
RMM:  29    -0.231591770235E+04   -0.51816E-03   -0.14718E-05  2621   0.278E-03    0.105E+00
RMM:  30    -0.231592977301E+04   -0.12071E-01   -0.79195E-03  4428   0.351E-02    0.104E+00
RMM:  31    -0.231595121637E+04   -0.21443E-01   -0.17694E-02  4716   0.557E-02    0.197E+00
RMM:  32    -0.231596299148E+04   -0.11775E-01   -0.44476E-03  4320   0.347E-02    0.248E+00
RMM:  33    -0.231596558006E+04   -0.25886E-02   -0.12141E-03  4131   0.170E-02    0.259E+00
RMM:  34    -0.231596646708E+04   -0.88702E-03   -0.22770E-04  3298   0.916E-03    0.262E+00
RMM:  35    -0.231596067567E+04    0.57914E-02   -0.18262E-04  3152   0.701E-03    0.243E+00
RMM:  36    -0.231595740845E+04    0.32672E-02   -0.83558E-05  2863   0.483E-03    0.226E+00
RMM:  37    -0.231595324394E+04    0.41645E-02   -0.15150E-04  3087   0.580E-03    0.201E+00
RMM:  38    -0.231593554070E+04    0.17703E-01   -0.58130E-03  4334   0.289E-02    0.111E+00
RMM:  39    -0.231592063737E+04    0.14903E-01   -0.15322E-02  4675   0.518E-02    0.818E-01
RMM:  40    -0.231591907350E+04    0.15639E-02   -0.19829E-03  4058   0.266E-02    0.851E-01
RMM:  41    -0.231591858269E+04    0.49081E-03   -0.40205E-04  3537   0.866E-03    0.860E-01
RMM:  42    -0.231591830710E+04    0.27559E-03   -0.32030E-05  2948   0.507E-03    0.870E-01
RMM:  43    -0.231591800011E+04    0.30699E-03   -0.12388E-05  2780   0.250E-03    0.871E-01
RMM:  44    -0.231591672909E+04    0.12710E-02   -0.86530E-05  3000   0.425E-03    0.890E-01
RMM:  45    -0.231592107005E+04   -0.43410E-02   -0.92351E-04  3617   0.121E-02    0.827E-01
RMM:  46    -0.231593509575E+04   -0.14026E-01   -0.11857E-02  4611   0.445E-02    0.104E+00
RMM:  47    -0.231597677103E+04   -0.41675E-01   -0.30370E-02  4891   0.705E-02    0.272E+00
RMM:  48    -0.231601943989E+04   -0.42669E-01   -0.13900E-02  4577   0.551E-02    0.327E+00
RMM:  49    -0.231602110563E+04   -0.16657E-02   -0.19561E-03  4204   0.246E-02    0.330E+00
RMM:  50    -0.231601432643E+04    0.67792E-02   -0.19976E-04  3251   0.898E-03    0.330E+00
RMM:  51    -0.231600833763E+04    0.59888E-02   -0.31072E-04  3343   0.858E-03    0.330E+00
RMM:  52    -0.231602125312E+04   -0.12915E-01   -0.51298E-04  3436   0.921E-03    0.333E+00
RMM:  53    -0.231601536301E+04    0.58901E-02   -0.87845E-05  2939   0.527E-03    0.332E+00
RMM:  54    -0.231601652841E+04   -0.11654E-02   -0.66064E-06  2350   0.204E-03    0.333E+00
RMM:  55    -0.231601697794E+04   -0.44953E-03   -0.19369E-06  2084   0.107E-03    0.333E+00
RMM:  56    -0.231601702658E+04   -0.48645E-04   -0.32651E-07  1651   0.762E-04    0.333E+00
RMM:  57    -0.231601567684E+04    0.13497E-02   -0.15131E-05  2509   0.179E-03    0.333E+00
RMM:  58    -0.231601548336E+04    0.19348E-03   -0.36411E-06  2176   0.147E-03    0.333E+00
RMM:  59    -0.231601303713E+04    0.24462E-02   -0.14176E-05  2277   0.176E-03    0.332E+00
RMM:  60    -0.231601939609E+04   -0.63590E-02   -0.54950E-04  3633   0.903E-03    0.329E+00
RMM:  61    -0.231601621329E+04    0.31828E-02   -0.55076E-05  2815   0.460E-03    0.327E+00
RMM:  62    -0.231602089646E+04   -0.46832E-02   -0.77132E-05  2842   0.388E-03    0.328E+00
RMM:  63    -0.231602051902E+04    0.37744E-03   -0.51719E-06  2491   0.237E-03    0.328E+00
RMM:  64    -0.231601839625E+04    0.21228E-02   -0.11482E-05  2204   0.163E-03    0.328E+00
RMM:  65    -0.231601583904E+04    0.25572E-02   -0.29705E-05  2507   0.234E-03    0.328E+00
RMM:  66    -0.231601254203E+04    0.32970E-02   -0.69271E-05  2815   0.340E-03    0.327E+00
RMM:  67    -0.231604474285E+04   -0.32201E-01   -0.48265E-03  4489   0.263E-02    0.323E+00
RMM:  68    -0.231603203294E+04    0.12710E-01   -0.47710E-04  3487   0.116E-02    0.327E+00
RMM:  69    -0.231602987592E+04    0.21570E-02   -0.63330E-05  2832   0.477E-03    0.327E+00
RMM:  70    -0.231602908713E+04    0.78879E-03   -0.13855E-05  2542   0.259E-03    0.328E+00
RMM:  71    -0.231603005307E+04   -0.96594E-03   -0.33520E-06  2348   0.153E-03    0.328E+00
RMM:  72    -0.231599590893E+04    0.34144E-01   -0.37908E-03  4294   0.228E-02    0.315E+00
RMM:  73    -0.231601385091E+04   -0.17942E-01   -0.96851E-04  4053   0.146E-02    0.324E+00
RMM:  74    -0.231601847455E+04   -0.46236E-02   -0.16216E-04  3040   0.665E-03    0.326E+00
RMM:  75    -0.231601862765E+04   -0.15310E-03   -0.21123E-05  2616   0.318E-03    0.326E+00
RMM:  76    -0.231601974360E+04   -0.11160E-02   -0.16047E-05  2491   0.229E-03    0.326E+00
RMM:  77    -0.231605582981E+04   -0.36086E-01   -0.75309E-03  4658   0.325E-02    0.317E+00
RMM:  78    -0.231602779090E+04    0.28039E-01   -0.21816E-03  4348   0.199E-02    0.323E+00
RMM:  79    -0.231601832215E+04    0.94688E-02   -0.54253E-04  3478   0.106E-02    0.321E+00
RMM:  80    -0.231601244153E+04    0.58806E-02   -0.24976E-04  3196   0.709E-03    0.319E+00
RMM:  81    -0.231600607369E+04    0.63678E-02   -0.18688E-04  3127   0.643E-03    0.314E+00
RMM:  82    -0.231592428238E+04    0.81791E-01   -0.71189E-02  4861   0.104E-01    0.768E-01
RMM:  83    -0.231593646084E+04   -0.12178E-01   -0.57936E-03  4343   0.549E-02    0.736E-01
RMM:  84    -0.231593785541E+04   -0.13946E-02   -0.65371E-04  3706   0.156E-02    0.793E-01
RMM:  85    -0.231593645828E+04    0.13971E-02   -0.17160E-04  3173   0.779E-03    0.744E-01
RMM:  86    -0.231593449320E+04    0.19651E-02   -0.35041E-04  3476   0.760E-03    0.692E-01
RMM:  87    -0.231592444296E+04    0.10050E-01   -0.75198E-03  4724   0.348E-02    0.599E-01
RMM:  88    -0.231592346552E+04    0.97744E-03   -0.73483E-04  3646   0.165E-02    0.608E-01
RMM:  89    -0.231592181628E+04    0.16492E-02   -0.49442E-04  3523   0.851E-03    0.626E-01
RMM:  90    -0.231592315406E+04   -0.13378E-02   -0.10202E-04  3047   0.639E-03    0.605E-01
RMM:  91    -0.231592460887E+04   -0.14548E-02   -0.20520E-04  3186   0.638E-03    0.584E-01
RMM:  92    -0.231592389494E+04    0.71393E-03   -0.54664E-05  2860   0.455E-03    0.600E-01
RMM:  93    -0.231592723823E+04   -0.33433E-02   -0.91204E-04  3924   0.124E-02    0.576E-01
RMM:  94    -0.231593689321E+04   -0.96550E-02   -0.65601E-03  4600   0.330E-02    0.759E-01
RMM:  95    -0.231594334666E+04   -0.64535E-02   -0.28643E-03  4280   0.244E-02    0.104E+00
RMM:  96    -0.231594318275E+04    0.16392E-03   -0.32049E-04  3412   0.108E-02    0.105E+00
RMM:  97    -0.231594145277E+04    0.17300E-02   -0.15726E-04  3120   0.669E-03    0.982E-01
RMM:  98    -0.231594128780E+04    0.16497E-03   -0.33952E-05  2798   0.371E-03    0.978E-01
RMM:  99    -0.231594289863E+04   -0.16108E-02   -0.57439E-05  2790   0.380E-03    0.107E+00
RMM: 100    -0.231594340143E+04   -0.50280E-03   -0.40970E-05  2898   0.385E-03    0.111E+00
RMM: 101    -0.231594250667E+04    0.89475E-03   -0.18941E-05  2658   0.307E-03    0.108E+00
RMM: 102    -0.231594680028E+04   -0.42936E-02   -0.59377E-04  3571   0.955E-03    0.129E+00
RMM: 103    -0.231594671509E+04    0.85190E-04   -0.45693E-05  2856   0.546E-03    0.130E+00
RMM: 104    -0.231594680132E+04   -0.86228E-04   -0.93292E-06  2626   0.230E-03    0.131E+00
RMM: 105    -0.231594711092E+04   -0.30960E-03   -0.35255E-06  2364   0.160E-03    0.132E+00
RMM: 106    -0.231594668255E+04    0.42838E-03   -0.22409E-06  2218   0.127E-03    0.130E+00
RMM: 107    -0.231594258035E+04    0.41022E-02   -0.18429E-03  4320   0.170E-02    0.112E+00
RMM: 108    -0.231594080387E+04    0.17765E-02   -0.33263E-04  3302   0.102E-02    0.101E+00
RMM: 109    -0.231594036736E+04    0.43651E-03   -0.19106E-04  3134   0.645E-03    0.981E-01
RMM: 110    -0.231594025678E+04    0.11057E-03   -0.41967E-05  2894   0.466E-03    0.966E-01
RMM: 111    -0.231594044227E+04   -0.18549E-03   -0.29572E-05  2913   0.343E-03    0.964E-01
RMM: 112    -0.231593641614E+04    0.40261E-02   -0.69344E-04  3730   0.111E-02    0.797E-01
RMM: 113    -0.231593453986E+04    0.18763E-02   -0.29829E-04  3288   0.871E-03    0.713E-01
RMM: 114    -0.231593421303E+04    0.32683E-03   -0.60195E-05  2924   0.515E-03    0.688E-01
RMM: 115    -0.231593494584E+04   -0.73281E-03   -0.32515E-05  2791   0.373E-03    0.696E-01
RMM: 116    -0.231593526795E+04   -0.32211E-03   -0.14386E-05  2539   0.237E-03    0.701E-01
RMM: 117    -0.231593684817E+04   -0.15802E-02   -0.10572E-04  2971   0.454E-03    0.776E-01
RMM: 118    -0.231593593340E+04    0.91477E-03   -0.12781E-04  2958   0.545E-03    0.792E-01
RMM: 119    -0.231593417043E+04    0.17630E-02   -0.39374E-04  3619   0.828E-03    0.779E-01
RMM: 120    -0.231592869458E+04    0.54759E-02   -0.32166E-03  4530   0.226E-02    0.746E-01
RMM: 121    -0.231592164969E+04    0.70449E-02   -0.49915E-03  4626   0.297E-02    0.824E-01
RMM: 122    -0.231591802396E+04    0.36257E-02   -0.16262E-03  4054   0.173E-02    0.880E-01
RMM: 123    -0.231591593164E+04    0.20923E-02   -0.54938E-04  3554   0.102E-02    0.934E-01
RMM: 124    -0.231591588694E+04    0.44707E-04   -0.42935E-05  2980   0.493E-03    0.935E-01
RMM: 125    -0.231591589636E+04   -0.94281E-05   -0.45656E-06  2593   0.206E-03
   3 F= -.23368657E+04 E0= -.23368622E+04  d E =-.267139E+00  mag=     7.2465
       N       E                     dE             d eps       ncg     rms          rms(c)
DAV:   1    -0.231578272000E+04    0.13317E+00   -0.15290E+01  4472   0.370E+00    0.193E+00
RMM:   2    -0.231593024876E+04   -0.14753E+00   -0.15122E+00  5909   0.823E-01    0.159E+00
RMM:   3    -0.231598331352E+04   -0.53065E-01   -0.15554E-01  4997   0.284E-01    0.405E+00
RMM:   4    -0.231598231744E+04    0.99607E-03   -0.46017E-02  5045   0.110E-01    0.489E+00
RMM:   5    -0.231593252978E+04    0.49788E-01   -0.24317E-02  4908   0.724E-02    0.227E+00
RMM:   6    -0.231591056163E+04    0.21968E-01   -0.48846E-02  5232   0.105E-01    0.144E+00
RMM:   7    -0.231589858013E+04    0.11981E-01   -0.15885E-02  5754   0.728E-02    0.889E-01
RMM:   8    -0.231587407117E+04    0.24509E-01   -0.16897E-02  4574   0.601E-02    0.132E+00
RMM:   9    -0.231581918156E+04    0.54890E-01   -0.23277E-02  4451   0.802E-02    0.205E+00
RMM:  10    -0.231587018291E+04   -0.51001E-01   -0.13137E-02  4359   0.540E-02    0.138E+00
RMM:  11    -0.231591011229E+04   -0.39929E-01   -0.44751E-02  4567   0.926E-02    0.814E-01
RMM:  12    -0.231592608977E+04   -0.15977E-01   -0.16757E-02  4527   0.631E-02    0.168E+00
RMM:  13    -0.231592589243E+04    0.19734E-03   -0.16143E-03  4340   0.266E-02    0.170E+00
RMM:  14    -0.231592600931E+04   -0.11689E-03   -0.24027E-04  3419   0.824E-03    0.172E+00
RMM:  15    -0.231592461790E+04    0.13914E-02   -0.16972E-04  3389   0.727E-03    0.161E+00
RMM:  16    -0.231591854108E+04    0.60768E-02   -0.22446E-03  4250   0.191E-02    0.107E+00
RMM:  17    -0.231591729144E+04    0.12496E-02   -0.13750E-03  4593   0.197E-02    0.834E-01
RMM:  18    -0.231591768222E+04   -0.39078E-03   -0.40151E-04  4198   0.106E-02    0.780E-01
RMM:  19    -0.231592063864E+04   -0.29564E-02   -0.96579E-04  4505   0.151E-02    0.822E-01
RMM:  20    -0.231592487383E+04   -0.42352E-02   -0.15727E-03  4524   0.179E-02    0.899E-01
RMM:  21    -0.231592260372E+04    0.22701E-02   -0.16958E-04  3198   0.894E-03    0.831E-01
RMM:  22    -0.231591873097E+04    0.38728E-02   -0.95575E-04  4025   0.131E-02    0.745E-01
RMM:  23    -0.231591012747E+04    0.86035E-02   -0.58771E-03  4663   0.319E-02    0.689E-01
RMM:  24    -0.231590812672E+04    0.20008E-02   -0.13527E-03  4190   0.180E-02    0.720E-01
RMM:  25    -0.231590821330E+04   -0.86586E-04   -0.15908E-04  3085   0.559E-03    0.717E-01
RMM:  26    -0.231590949364E+04   -0.12803E-02   -0.13452E-04  3084   0.583E-03    0.689E-01
RMM:  27    -0.231591078384E+04   -0.12902E-02   -0.17310E-04  3262   0.581E-03    0.674E-01
RMM:  28    -0.231591041816E+04    0.36568E-03   -0.95379E-06  2497   0.282E-03    0.679E-01
RMM:  29    -0.231590792982E+04    0.24883E-02   -0.48079E-04  3585   0.885E-03    0.713E-01
RMM:  30    -0.231590731553E+04    0.61429E-03   -0.76600E-05  2891   0.478E-03    0.722E-01
RMM:  31    -0.231591497350E+04   -0.76580E-02   -0.38317E-03  4454   0.248E-02    0.683E-01
RMM:  32    -0.231592563149E+04   -0.10658E-01   -0.71833E-03  4716   0.353E-02    0.945E-01
RMM:  33    -0.231590774002E+04    0.17891E-01   -0.17950E-02  4779   0.550E-02    0.756E-01
RMM:  34    -0.231589498923E+04    0.12751E-01   -0.13031E-02  4758   0.481E-02    0.105E+00
RMM:  35    -0.231588049793E+04    0.14491E-01   -0.10644E-02  4896   0.430E-02    0.145E+00
RMM:  36    -0.231588050474E+04   -0.68071E-05   -0.81298E-04  3735   0.159E-02    0.145E+00
RMM:  37    -0.231588051657E+04   -0.11834E-04   -0.10849E-04  3115   0.443E-03    0.145E+00
RMM:  38    -0.231588251942E+04   -0.20028E-02   -0.10846E-04  3010   0.528E-03    0.140E+00
RMM:  39    -0.231588092175E+04    0.15977E-02   -0.11316E-04  3033   0.472E-03    0.146E+00
RMM:  40    -0.231588581011E+04   -0.48884E-02   -0.63911E-04  3658   0.111E-02    0.132E+00
RMM:  41    -0.231588960510E+04   -0.37950E-02   -0.63232E-04  3865   0.122E-02    0.122E+00
RMM:  42    -0.231589699329E+04   -0.73882E-02   -0.29297E-03  4473   0.230E-02    0.981E-01
RMM:  43    -0.231590358490E+04   -0.65916E-02   -0.42359E-03  4764   0.286E-02    0.764E-01
RMM:  44    -0.231591388801E+04   -0.10303E-01   -0.95608E-03  4855   0.400E-02    0.570E-01
RMM:  45    -0.231591935298E+04   -0.54650E-02   -0.39529E-03  4564   0.291E-02    0.586E-01
RMM:  46    -0.231591948991E+04   -0.13693E-03   -0.47918E-04  3532   0.991E-03    0.598E-01
RMM:  47    -0.231592205313E+04   -0.25632E-02   -0.42034E-04  3610   0.950E-03    0.658E-01
RMM:  48    -0.231592333005E+04   -0.12769E-02   -0.17815E-04  3372   0.727E-03    0.680E-01
RMM:  49    -0.231592003947E+04    0.32906E-02   -0.50339E-04  3617   0.104E-02    0.625E-01
RMM:  50    -0.231591730438E+04    0.27351E-02   -0.59989E-04  3733   0.110E-02    0.580E-01
RMM:  51    -0.231591619849E+04    0.11059E-02   -0.20297E-04  3150   0.791E-03    0.567E-01
RMM:  52    -0.231591273478E+04    0.34637E-02   -0.91622E-04  4034   0.129E-02    0.572E-01
RMM:  53    -0.231591057949E+04    0.21553E-02   -0.45405E-04  3495   0.108E-02    0.588E-01
RMM:  54    -0.231590664710E+04    0.39324E-02   -0.11190E-03  4240   0.142E-02    0.653E-01
RMM:  55    -0.231590683371E+04   -0.18661E-03   -0.64301E-05  2939   0.628E-03    0.646E-01
RMM:  56    -0.231590664277E+04    0.19094E-03   -0.14603E-05  2660   0.220E-03    0.648E-01
RMM:  57    -0.231590507568E+04    0.15671E-02   -0.13902E-04  3187   0.520E-03    0.682E-01
RMM:  58    -0.231590527925E+04   -0.20357E-03   -0.74872E-06  2510   0.281E-03    0.675E-01
RMM:  59    -0.231590485996E+04    0.41929E-03   -0.13388E-05  2487   0.194E-03    0.683E-01
RMM:  60    -0.231590511371E+04   -0.25375E-03   -0.28913E-06  2257   0.168E-03    0.678E-01
RMM:  61    -0.231590605883E+04   -0.94512E-03   -0.52011E-05  2574   0.307E-03    0.658E-01
RMM:  62    -0.231590692774E+04   -0.86891E-03   -0.64493E-05  2940   0.359E-03    0.644E-01
RMM:  63    -0.231590750965E+04   -0.58190E-03   -0.37106E-05  2679   0.270E-03    0.634E-01
RMM:  64    -0.231590742960E+04    0.80044E-04   -0.36871E-06  2231   0.172E-03    0.636E-01
RMM:  65    -0.231590725145E+04    0.17815E-03   -0.21510E-06  1500   0.998E-04    0.639E-01
RMM:  66    -0.231590724021E+04    0.11236E-04   -0.23199E-07  1141   0.656E-04    0.640E-01
RMM:  67    -0.231591254518E+04   -0.53050E-02   -0.17038E-03  4239   0.171E-02    0.568E-01
RMM:  68    -0.231591076715E+04    0.17780E-02   -0.11962E-04  2996   0.699E-03    0.593E-01
RMM:  69    -0.231590945382E+04    0.13133E-02   -0.13957E-04  3041   0.563E-03    0.610E-01
RMM:  70    -0.231590958089E+04   -0.12707E-03   -0.46182E-06  2043   0.244E-03    0.607E-01
RMM:  71    -0.231590962677E+04   -0.45879E-04   -0.52735E-07  1451   0.811E-04    0.606E-01
RMM:  72    -0.231590850038E+04    0.11264E-02   -0.75205E-05  2968   0.365E-03    0.629E-01
RMM:  73    -0.231590867578E+04   -0.17540E-03   -0.35436E-06  2106   0.189E-03    0.625E-01
RMM:  74    -0.231590890787E+04   -0.23209E-03   -0.33271E-06  1679   0.108E-03    0.621E-01
RMM:  75    -0.231590961745E+04   -0.70958E-03   -0.29954E-05  2527   0.252E-03    0.608E-01
RMM:  76    -0.231591000521E+04   -0.38776E-03   -0.19370E-05  2505   0.227E-03    0.602E-01
RMM:  77    -0.231590705344E+04    0.29518E-02   -0.42934E-03  4841   0.281E-02    0.729E-01
RMM:  78    -0.231590815424E+04   -0.11008E-02   -0.31092E-04  3657   0.111E-02    0.723E-01
RMM:  79    -0.231590983883E+04   -0.16846E-02   -0.19933E-04  3307   0.667E-03    0.715E-01
RMM:  80    -0.231591118564E+04   -0.13468E-02   -0.15123E-04  3123   0.616E-03    0.715E-01
RMM:  81    -0.231591648209E+04   -0.52964E-02   -0.17972E-03  4309   0.177E-02    0.784E-01
RMM:  82    -0.231591736759E+04   -0.88550E-03   -0.26410E-04  3282   0.101E-02    0.794E-01
RMM:  83    -0.231591601351E+04    0.13541E-02   -0.66173E-05  2942   0.497E-03    0.764E-01
RMM:  84    -0.231591442794E+04    0.15856E-02   -0.15703E-04  3094   0.572E-03    0.738E-01
RMM:  85    -0.231590141690E+04    0.13011E-01   -0.96833E-03  4659   0.401E-02    0.851E-01
RMM:  86    -0.231589853747E+04    0.28794E-02   -0.12911E-03  4035   0.206E-02    0.921E-01
RMM:  87    -0.231610813008E+04   -0.20959E+00   -0.34228E-01  4981   0.229E-01    0.278E+00
RMM:  88    -0.231611139844E+04   -0.32684E-02   -0.20540E-02  4511   0.968E-02    0.283E+00
RMM:  89    -0.231611023149E+04    0.11670E-02   -0.29809E-03  4369   0.237E-02    0.285E+00
RMM:  90    -0.231611036205E+04   -0.13056E-03   -0.17999E-04  3194   0.111E-02    0.285E+00
RMM:  91    -0.231611027445E+04    0.87605E-04   -0.39944E-05  2914   0.314E-03    0.285E+00
RMM:  92    -0.231611854048E+04   -0.82660E-02   -0.20315E-04  3169   0.598E-03    0.281E+00
RMM:  93    -0.231613823641E+04   -0.19696E-01   -0.15805E-03  4314   0.154E-02    0.276E+00
RMM:  94    -0.231614428890E+04   -0.60525E-02   -0.39049E-04  3422   0.951E-03    0.275E+00
RMM:  95    -0.231614135134E+04    0.29376E-02   -0.29396E-05  2774   0.363E-03    0.276E+00
RMM:  96    -0.231614285651E+04   -0.15052E-02   -0.12366E-05  2407   0.197E-03    0.276E+00
RMM:  97    -0.231612157917E+04    0.21277E-01   -0.16762E-03  4195   0.159E-02    0.281E+00
RMM:  98    -0.231614672527E+04   -0.25146E-01   -0.21113E-03  4350   0.169E-02    0.275E+00
RMM:  99    -0.231614162988E+04    0.50954E-02   -0.84757E-05  2919   0.609E-03    0.275E+00
RMM: 100    -0.231614240577E+04   -0.77589E-03   -0.65715E-06  2380   0.198E-03    0.275E+00
RMM: 101    -0.231614745631E+04   -0.50505E-02   -0.10769E-04  2959   0.415E-03    0.274E+00
RMM: 102    -0.231615626576E+04   -0.88094E-02   -0.45358E-04  3683   0.829E-03    0.274E+00
RMM: 103    -0.231615709661E+04   -0.83085E-03   -0.47389E-05  2758   0.417E-03    0.274E+00
RMM: 104    -0.231615527524E+04    0.18214E-02   -0.98483E-06  2417   0.187E-03    0.275E+00
RMM: 105    -0.231615484206E+04    0.43318E-03   -0.23528E-06  2163   0.121E-03    0.274E+00
RMM: 106    -0.231615220850E+04    0.26336E-02   -0.39277E-05  2686   0.263E-03    0.274E+00
RMM: 107    -0.231616244031E+04   -0.10232E-01   -0.57519E-04  3639   0.948E-03    0.274E+00
RMM: 108    -0.231614987672E+04    0.12564E-01   -0.68714E-04  3669   0.970E-03    0.274E+00
RMM: 109    -0.231615351738E+04   -0.36407E-02   -0.47235E-05  2795   0.470E-03    0.274E+00
RMM: 110    -0.231614753506E+04    0.59823E-02   -0.17976E-04  3007   0.525E-03    0.274E+00
RMM: 111    -0.231614706953E+04    0.46553E-03   -0.29319E-05  2695   0.337E-03    0.274E+00
RMM: 112    -0.231616230616E+04   -0.15237E-01   -0.12064E-03  4185   0.130E-02    0.275E+00
RMM: 113    -0.231614595211E+04    0.16354E-01   -0.93041E-04  3983   0.113E-02    0.275E+00
RMM: 114    -0.231614658024E+04   -0.62813E-03   -0.10315E-04  2948   0.606E-03    0.275E+00
RMM: 115    -0.231614954262E+04   -0.29624E-02   -0.17412E-04  3301   0.582E-03    0.275E+00
RMM: 116    -0.231614957507E+04   -0.32445E-04   -0.19153E-05  2548   0.281E-03    0.275E+00
RMM: 117    -0.231608572902E+04    0.63846E-01   -0.21038E-02  4970   0.598E-02    0.298E+00
RMM: 118    -0.231610016521E+04   -0.14436E-01   -0.10539E-03  3883   0.195E-02    0.293E+00
RMM: 119    -0.231611253944E+04   -0.12374E-01   -0.60350E-04  3543   0.103E-02    0.288E+00
RMM: 120    -0.231611675826E+04   -0.42188E-02   -0.13147E-04  2963   0.586E-03    0.287E+00
RMM: 121    -0.231611751244E+04   -0.75418E-03   -0.25558E-05  2711   0.312E-03    0.288E+00
RMM: 122    -0.231609082964E+04    0.26683E-01   -0.30131E-03  4264   0.201E-02    0.299E+00
RMM: 123    -0.231609091058E+04   -0.80937E-04   -0.15351E-04  2972   0.853E-03    0.299E+00
RMM: 124    -0.231609125712E+04   -0.34654E-03   -0.24092E-05  2676   0.246E-03    0.299E+00
RMM: 125    -0.231609099225E+04    0.26487E-03   -0.31261E-06  2468   0.174E-03    0.299E+00
RMM: 126    -0.231609390287E+04   -0.29106E-02   -0.11546E-04  2920   0.473E-03    0.296E+00
RMM: 127    -0.231588665445E+04    0.20725E+00   -0.27081E-01  4650   0.200E-01    0.859E-01
RMM: 128    -0.231590379755E+04   -0.17143E-01   -0.15001E-02  4274   0.986E-02    0.948E-01
RMM: 129    -0.231590485145E+04   -0.10539E-02   -0.47867E-03  4596   0.296E-02    0.108E+00
RMM: 130    -0.231590481639E+04    0.35051E-04   -0.68058E-04  4013   0.168E-02    0.955E-01
RMM: 131    -0.231590532166E+04   -0.50527E-03   -0.59369E-03  4863   0.314E-02    0.693E-01
RMM: 132    -0.231592336592E+04   -0.18044E-01   -0.56222E-02  5128   0.961E-02    0.194E+00
RMM: 133    -0.231592391069E+04   -0.54477E-03   -0.38319E-03  4512   0.398E-02    0.190E+00
RMM: 134    -0.231593152213E+04   -0.76114E-02   -0.27700E-03  4473   0.214E-02    0.225E+00
RMM: 135    -0.231591477432E+04    0.16748E-01   -0.10490E-02  4620   0.422E-02    0.163E+00
RMM: 136    -0.231589838601E+04    0.16388E-01   -0.95869E-03  4606   0.423E-02    0.127E+00
RMM: 137    -0.231588835215E+04    0.10034E-01   -0.54709E-03  4845   0.337E-02    0.145E+00
RMM: 138    -0.231589494901E+04   -0.65969E-02   -0.77637E-04  3918   0.153E-02    0.133E+00
RMM: 139    -0.231589685312E+04   -0.19041E-02   -0.19251E-04  3138   0.779E-03    0.130E+00
RMM: 140    -0.231589881128E+04   -0.19582E-02   -0.18135E-04  3186   0.658E-03    0.127E+00
RMM: 141    -0.231590272889E+04   -0.39176E-02   -0.64757E-04  3686   0.110E-02    0.122E+00
RMM: 142    -0.231590885670E+04   -0.61278E-02   -0.25881E-03  4420   0.221E-02    0.117E+00
RMM: 143    -0.231592654404E+04   -0.17687E-01   -0.12802E-02  4691   0.463E-02    0.182E+00
RMM: 144    -0.231591554019E+04    0.11004E-01   -0.24203E-03  3958   0.314E-02    0.125E+00
RMM: 145    -0.231592078427E+04   -0.52441E-02   -0.13169E-03  4289   0.172E-02    0.134E+00
RMM: 146    -0.231591318034E+04    0.76039E-02   -0.22666E-03  4164   0.204E-02    0.980E-01
RMM: 147    -0.231590662284E+04    0.65575E-02   -0.29244E-03  4251   0.235E-02    0.952E-01
RMM: 148    -0.231589985252E+04    0.67703E-02   -0.33259E-03  4523   0.249E-02    0.107E+00
RMM: 149    -0.231589366110E+04    0.61914E-02   -0.22413E-03  4240   0.201E-02    0.121E+00
RMM: 150    -0.231589925979E+04   -0.55987E-02   -0.79822E-04  3788   0.136E-02    0.109E+00
RMM: 151    -0.231590853238E+04   -0.92726E-02   -0.42058E-03  4404   0.271E-02    0.990E-01
RMM: 152    -0.231591548095E+04   -0.69486E-02   -0.34518E-03  4301   0.256E-02    0.110E+00
RMM: 153    -0.231591552238E+04   -0.41432E-04   -0.31203E-04  3283   0.109E-02    0.110E+00
RMM: 154    -0.231591371656E+04    0.18058E-02   -0.16218E-04  3181   0.674E-03    0.108E+00
RMM: 155    -0.231591330045E+04    0.41611E-03   -0.68119E-05  2907   0.444E-03    0.110E+00
RMM: 156    -0.231591352167E+04   -0.22122E-03   -0.44481E-06  2416   0.205E-03    0.110E+00
RMM: 157    -0.231592702939E+04   -0.13508E-01   -0.92457E-03  4663   0.386E-02    0.146E+00
RMM: 158    -0.231594183107E+04   -0.14802E-01   -0.55751E-03  4418   0.333E-02    0.213E+00
RMM: 159    -0.231598668099E+04   -0.44850E-01   -0.13552E-02  4827   0.459E-02    0.320E+00
RMM: 160    -0.231603421211E+04   -0.47531E-01   -0.95850E-03  4425   0.444E-02    0.331E+00
RMM: 161    -0.231602472074E+04    0.94914E-02   -0.73650E-04  3761   0.187E-02    0.335E+00
RMM: 162    -0.231602385954E+04    0.86120E-03   -0.15908E-04  3173   0.657E-03    0.335E+00
RMM: 163    -0.231601187174E+04    0.11988E-01   -0.37653E-04  3321   0.830E-03    0.336E+00
RMM: 164    -0.231602884088E+04   -0.16969E-01   -0.64034E-04  3515   0.975E-03    0.333E+00
RMM: 165    -0.231603030314E+04   -0.14623E-02   -0.54582E-05  2773   0.493E-03    0.333E+00
RMM: 166    -0.231603063966E+04   -0.33652E-03   -0.16980E-05  2593   0.232E-03    0.333E+00
RMM: 167    -0.231612877212E+04   -0.98132E-01   -0.25499E-02  4675   0.588E-02    0.274E+00
RMM: 168    -0.231603093556E+04    0.97837E-01   -0.24777E-02  4879   0.600E-02    0.338E+00
RMM: 169    -0.231605586622E+04   -0.24931E-01   -0.13124E-03  4165   0.255E-02    0.323E+00
RMM: 170    -0.231602402511E+04    0.31841E-01   -0.23456E-03  4174   0.182E-02    0.340E+00
RMM: 171    -0.231600657850E+04    0.17447E-01   -0.13091E-03  3867   0.154E-02    0.344E+00
RMM: 172    -0.231601670623E+04   -0.10128E-01   -0.17744E-04  3102   0.765E-03    0.342E+00
RMM: 173    -0.231601618947E+04    0.51676E-03   -0.13360E-05  2599   0.284E-03    0.343E+00
RMM: 174    -0.231602209681E+04   -0.59073E-02   -0.10679E-04  2876   0.418E-03    0.342E+00
RMM: 175    -0.231602957150E+04   -0.74747E-02   -0.24945E-04  3246   0.678E-03    0.341E+00
RMM: 176    -0.231604806896E+04   -0.18497E-01   -0.98865E-04  3712   0.119E-02    0.331E+00
RMM: 177    -0.231607165523E+04   -0.23586E-01   -0.17161E-03  4000   0.167E-02    0.316E+00
RMM: 178    -0.231604810348E+04    0.23552E-01   -0.13543E-03  4120   0.158E-02    0.336E+00
RMM: 179    -0.231606346283E+04   -0.15359E-01   -0.50045E-04  3418   0.104E-02    0.327E+00
RMM: 180    -0.231607375182E+04   -0.10289E-01   -0.43056E-04  3283   0.863E-03    0.319E+00
RMM: 181    -0.231607326319E+04    0.48862E-03   -0.43529E-05  2746   0.511E-03    0.320E+00
RMM: 182    -0.231607090516E+04    0.23580E-02   -0.12643E-04  2962   0.463E-03    0.324E+00
RMM: 183    -0.231604060165E+04    0.30304E-01   -0.32203E-03  4445   0.220E-02    0.351E+00
RMM: 184    -0.231602846310E+04    0.12139E-01   -0.10913E-03  3990   0.154E-02    0.362E+00
RMM: 185    -0.231602884899E+04   -0.38589E-03   -0.10534E-04  2986   0.520E-03    0.361E+00
RMM: 186    -0.231602607998E+04    0.27690E-02   -0.33494E-05  2719   0.330E-03    0.361E+00
RMM: 187    -0.231599016724E+04    0.35913E-01   -0.33244E-03  4128   0.214E-02    0.362E+00
RMM: 188    -0.231597940644E+04    0.10761E-01   -0.67231E-04  3465   0.137E-02    0.348E+00
RMM: 189    -0.231597036894E+04    0.90375E-02   -0.53474E-04  3533   0.955E-03    0.335E+00
RMM: 190    -0.231595460588E+04    0.15763E-01   -0.11552E-03  3849   0.144E-02    0.302E+00
RMM: 191    -0.231594472027E+04    0.98856E-02   -0.10766E-03  3985   0.152E-02    0.270E+00
RMM: 192    -0.231588713754E+04    0.57583E-01   -0.90130E-02  4942   0.119E-01    0.140E+00
RMM: 193    -0.231587705837E+04    0.10079E-01   -0.12276E-02  4450   0.655E-02    0.165E+00
RMM: 194    -0.231585934607E+04    0.17712E-01   -0.97279E-03  4828   0.373E-02    0.201E+00
RMM: 195    -0.231586684873E+04   -0.75027E-02   -0.74521E-04  3679   0.195E-02    0.184E+00
RMM: 196    -0.231589044193E+04   -0.23593E-01   -0.11800E-02  4566   0.447E-02    0.127E+00
RMM: 197    -0.231592756638E+04   -0.37124E-01   -0.48721E-02  4711   0.911E-02    0.194E+00
RMM: 198    -0.231595530958E+04   -0.27743E-01   -0.17625E-02  4525   0.673E-02    0.293E+00
RMM: 199    -0.231598726086E+04   -0.31951E-01   -0.99552E-03  4575   0.406E-02    0.351E+00
RMM: 200    -0.231599176409E+04   -0.45032E-02   -0.12023E-03  3944   0.253E-02    0.357E+00
RMM: 201    -0.231599285403E+04   -0.10899E-02   -0.23795E-04  3271   0.830E-03    0.359E+00
RMM: 202    -0.231601540954E+04   -0.22556E-01   -0.17729E-03  4301   0.168E-02    0.357E+00
RMM: 203    -0.231602981499E+04   -0.14405E-01   -0.10219E-03  3925   0.142E-02    0.350E+00
RMM: 204    -0.231605027925E+04   -0.20464E-01   -0.16607E-03  4247   0.164E-02    0.336E+00
RMM: 205    -0.231606014494E+04   -0.98657E-02   -0.53880E-04  3518   0.115E-02    0.329E+00
RMM: 206    -0.231606186157E+04   -0.17166E-02   -0.95601E-05  3027   0.519E-03    0.328E+00
RMM: 207    -0.231603996132E+04    0.21900E-01   -0.18804E-03  4106   0.164E-02    0.346E+00
RMM: 208    -0.231605813521E+04   -0.18174E-01   -0.57898E-04  3488   0.101E-02    0.334E+00
RMM: 209    -0.231607422613E+04   -0.16091E-01   -0.78677E-04  3647   0.115E-02    0.322E+00
RMM: 210    -0.231607582911E+04   -0.16030E-02   -0.78072E-05  2806   0.575E-03    0.320E+00
RMM: 211    -0.231607587569E+04   -0.46587E-04   -0.10800E-05  2510   0.218E-03    0.320E+00
RMM: 212    -0.231606965048E+04    0.62252E-02   -0.16765E-04  2979   0.516E-03    0.327E+00
RMM: 213    -0.231606851572E+04    0.11348E-02   -0.42223E-05  2709   0.333E-03    0.328E+00
RMM: 214    -0.231606282996E+04    0.56858E-02   -0.15339E-04  3205   0.532E-03    0.334E+00
RMM: 215    -0.231606065089E+04    0.21791E-02   -0.53380E-05  2811   0.404E-03    0.336E+00
RMM: 216    -0.231605828237E+04    0.23685E-02   -0.24454E-05  2565   0.299E-03    0.338E+00
RMM: 217    -0.231605232307E+04    0.59593E-02   -0.16097E-04  3287   0.536E-03    0.344E+00
RMM: 218    -0.231604325291E+04    0.90702E-02   -0.19647E-04  3120   0.620E-03    0.350E+00
RMM: 219    -0.231604038820E+04    0.28647E-02   -0.53214E-05  2769   0.417E-03    0.352E+00
RMM: 220    -0.231604037377E+04    0.14431E-04   -0.65079E-06  2429   0.215E-03    0.352E+00
RMM: 221    -0.231604260773E+04   -0.22340E-02   -0.51220E-05  2712   0.298E-03    0.350E+00
RMM: 222    -0.231607583746E+04   -0.33230E-01   -0.24753E-03  4166   0.191E-02    0.323E+00
RMM: 223    -0.231606783858E+04    0.79989E-02   -0.12991E-04  3010   0.768E-03    0.329E+00
RMM: 224    -0.231605961841E+04    0.82202E-02   -0.24519E-04  3207   0.654E-03    0.337E+00
RMM: 225    -0.231606546398E+04   -0.58456E-02   -0.63627E-05  2566   0.394E-03    0.332E+00
RMM: 226    -0.231605580136E+04    0.96626E-02   -0.28446E-04  3222   0.675E-03    0.341E+00
RMM: 227    -0.231606480820E+04   -0.90068E-02   -0.17278E-04  2969   0.558E-03    0.335E+00
RMM: 228    -0.231606563955E+04   -0.83135E-03   -0.31506E-05  2665   0.355E-03    0.335E+00
RMM: 229    -0.231606572656E+04   -0.87008E-04   -0.37249E-06  2349   0.183E-03    0.335E+00
RMM: 230    -0.231606729618E+04   -0.15696E-02   -0.67297E-06  2157   0.142E-03    0.334E+00
RMM: 231    -0.231606877195E+04   -0.14758E-02   -0.33383E-05  2597   0.276E-03    0.332E+00
RMM: 232    -0.231601273013E+04    0.56042E-01   -0.74430E-03  4432   0.324E-02    0.369E+00
RMM: 233    -0.231602206482E+04   -0.93347E-02   -0.28488E-04  3220   0.129E-02    0.365E+00
RMM: 234    -0.231602226849E+04   -0.20366E-03   -0.36203E-05  2765   0.343E-03    0.365E+00
RMM: 235    -0.231601758764E+04    0.46808E-02   -0.67588E-05  2836   0.362E-03    0.367E+00
RMM: 236    -0.231601094531E+04    0.66423E-02   -0.12760E-04  2875   0.450E-03    0.367E+00
RMM: 237    -0.231588657391E+04    0.12437E+00   -0.11755E-01  4593   0.134E-01    0.743E-01
RMM: 238    -0.231590956851E+04   -0.22995E-01   -0.10386E-02  4567   0.737E-02    0.579E-01
RMM: 239    -0.231591232029E+04   -0.27518E-02   -0.31367E-03  4416   0.266E-02    0.588E-01
RMM: 240    -0.231591270306E+04   -0.38277E-03   -0.27282E-04  3419   0.122E-02    0.591E-01
RMM: 241    -0.231591550586E+04   -0.28028E-02   -0.52908E-04  3472   0.995E-03    0.580E-01
RMM: 242    -0.231593777606E+04   -0.22270E-01   -0.14498E-02  4253   0.463E-02    0.202E+00
RMM: 243    -0.231592246761E+04    0.15308E-01   -0.36773E-03  4342   0.381E-02    0.127E+00
RMM: 244    -0.231591802205E+04    0.44456E-02   -0.18951E-03  4039   0.199E-02    0.108E+00
RMM: 245    -0.231591277358E+04    0.52485E-02   -0.16123E-03  3960   0.180E-02    0.874E-01
RMM: 246    -0.231591190424E+04    0.86934E-03   -0.30693E-04  3411   0.111E-02    0.872E-01
RMM: 247    -0.231590590699E+04    0.59973E-02   -0.24037E-03  4350   0.193E-02    0.838E-01
RMM: 248    -0.231590322564E+04    0.26813E-02   -0.71045E-04  3719   0.135E-02    0.868E-01
RMM: 249    -0.231590632035E+04   -0.30947E-02   -0.37561E-04  3499   0.940E-03    0.827E-01
RMM: 250    -0.231591252957E+04   -0.62092E-02   -0.24348E-03  4310   0.205E-02    0.821E-01
RMM: 251    -0.231592332200E+04   -0.10792E-01   -0.72714E-03  4641   0.350E-02    0.108E+00
RMM: 252    -0.231592251381E+04    0.80819E-03   -0.46642E-04  3535   0.158E-02    0.106E+00
RMM: 253    -0.231592342801E+04   -0.91420E-03   -0.12240E-04  3097   0.506E-03    0.112E+00
RMM: 254    -0.231592574036E+04   -0.23123E-02   -0.19223E-04  3275   0.621E-03    0.122E+00
RMM: 255    -0.231592939305E+04   -0.36527E-02   -0.37062E-04  3452   0.857E-03    0.141E+00
RMM: 256    -0.231593099278E+04   -0.15997E-02   -0.12845E-04  3060   0.673E-03    0.149E+00
RMM: 257    -0.231592919644E+04    0.17963E-02   -0.22647E-04  3369   0.710E-03    0.132E+00
RMM: 258    -0.231592935432E+04   -0.15788E-03   -0.17543E-05  2673   0.390E-03    0.132E+00
RMM: 259    -0.231593246969E+04   -0.31154E-02   -0.29328E-04  3482   0.706E-03    0.145E+00
RMM: 260    -0.231592691468E+04    0.55550E-02   -0.77773E-04  3798   0.118E-02    0.123E+00
RMM: 261    -0.231592271598E+04    0.41987E-02   -0.12403E-03  4215   0.146E-02    0.110E+00
RMM: 262    -0.231591565002E+04    0.70660E-02   -0.30283E-03  4429   0.224E-02    0.868E-01
RMM: 263    -0.231591237684E+04    0.32732E-02   -0.23824E-03  4530   0.215E-02    0.890E-01
RMM: 264    -0.231590773959E+04    0.46373E-02   -0.27116E-03  4517   0.214E-02    0.905E-01
RMM: 265    -0.231590675746E+04    0.98212E-03   -0.42103E-04  3521   0.116E-02    0.917E-01
RMM: 266    -0.231590514900E+04    0.16085E-02   -0.30320E-04  3509   0.753E-03    0.929E-01
RMM: 267    -0.231589900113E+04    0.61479E-02   -0.19406E-03  4307   0.186E-02    0.102E+00
RMM: 268    -0.231590360233E+04   -0.46012E-02   -0.74255E-04  3855   0.128E-02    0.949E-01
RMM: 269    -0.231591033555E+04   -0.67332E-02   -0.25631E-03  4305   0.208E-02    0.926E-01
RMM: 270    -0.231592882920E+04   -0.18494E-01   -0.18711E-02  4852   0.551E-02    0.141E+00
RMM: 271    -0.231594821665E+04   -0.19387E-01   -0.12064E-02  4778   0.472E-02    0.216E+00
RMM: 272    -0.231597396802E+04   -0.25751E-01   -0.89476E-03  4652   0.388E-02    0.282E+00
RMM: 273    -0.231601284028E+04   -0.38872E-01   -0.92778E-03  4609   0.396E-02    0.315E+00
RMM: 274    -0.231601373730E+04   -0.89702E-03   -0.91834E-04  3907   0.189E-02    0.317E+00
RMM: 275    -0.231601340087E+04    0.33643E-03   -0.14218E-04  3067   0.614E-03    0.317E+00
RMM: 276    -0.231601438309E+04   -0.98222E-03   -0.16185E-05  2893   0.358E-03    0.317E+00
RMM: 277    -0.231589908965E+04    0.11529E+00   -0.14186E-01  4961   0.150E-01    0.907E-01
RMM: 278    -0.231590364151E+04   -0.45519E-02   -0.13337E-02  4592   0.740E-02    0.983E-01
RMM: 279    -0.231589957706E+04    0.40644E-02   -0.44008E-03  4683   0.252E-02    0.101E+00
RMM: 280    -0.231589795643E+04    0.16206E-02   -0.34902E-04  3530   0.127E-02    0.102E+00
RMM: 281    -0.231589790767E+04    0.48762E-04   -0.57950E-05  2977   0.459E-03    0.100E+00
RMM: 282    -0.231589787479E+04    0.32874E-04   -0.18201E-05  2873   0.317E-03    0.101E+00
RMM: 283    -0.231590199956E+04   -0.41248E-02   -0.13458E-03  4233   0.150E-02    0.907E-01
RMM: 284    -0.231590535921E+04   -0.33597E-02   -0.12590E-03  4171   0.160E-02    0.841E-01
RMM: 285    -0.231590913367E+04   -0.37745E-02   -0.14599E-03  4356   0.160E-02    0.810E-01
RMM: 286    -0.231591060282E+04   -0.14691E-02   -0.39828E-04  3501   0.992E-03    0.804E-01
RMM: 287    -0.231591226387E+04   -0.16610E-02   -0.46784E-04  3862   0.932E-03    0.799E-01
RMM: 288    -0.231591054417E+04    0.17197E-02   -0.18798E-04  3218   0.756E-03    0.791E-01
RMM: 289    -0.231590880805E+04    0.17361E-02   -0.35719E-04  3639   0.811E-03    0.799E-01
RMM: 290    -0.231590669626E+04    0.21118E-02   -0.50043E-04  3667   0.952E-03    0.818E-01
RMM: 291    -0.231590496848E+04    0.17278E-02   -0.38951E-04  3511   0.844E-03    0.841E-01
RMM: 292    -0.231590234816E+04    0.26203E-02   -0.61364E-04  3914   0.108E-02    0.884E-01
RMM: 293    -0.231590239317E+04   -0.45011E-04   -0.47391E-05  2884   0.525E-03    0.884E-01
RMM: 294    -0.231590231642E+04    0.76754E-04   -0.10191E-05  2553   0.202E-03    0.885E-01
RMM: 295    -0.231590230679E+04    0.96277E-05   -0.12712E-06  2380   0.155E-03
   4 F= -.23368510E+04 E0= -.23368454E+04  d E =-.252423E+00  mag=     7.1513
       N       E                     dE             d eps       ncg     rms          rms(c)
DAV:   1    -0.231591350887E+04   -0.11192E-01   -0.46078E+00  4472   0.201E+00    0.111E+00
RMM:   2    -0.231596866354E+04   -0.55155E-01   -0.45595E-01  5827   0.444E-01    0.118E+00
RMM:   3    -0.231598352007E+04   -0.14857E-01   -0.42282E-02  5223   0.171E-01    0.276E+00
RMM:   4    -0.231599043886E+04   -0.69188E-02   -0.16474E-02  5043   0.632E-02    0.335E+00
RMM:   5    -0.231594635023E+04    0.44089E-01   -0.26102E-02  4765   0.734E-02    0.102E+00
RMM:   6    -0.231593644250E+04    0.99077E-02   -0.11313E-02  5010   0.569E-02    0.130E+00
RMM:   7    -0.231592133631E+04    0.15106E-01   -0.84718E-03  4698   0.441E-02    0.162E+00
RMM:   8    -0.231593418472E+04   -0.12848E-01   -0.21662E-03  4217   0.267E-02    0.141E+00
RMM:   9    -0.231596131555E+04   -0.27131E-01   -0.35392E-02  4725   0.804E-02    0.969E-01
RMM:  10    -0.231599420757E+04   -0.32892E-01   -0.40737E-02  4853   0.903E-02    0.248E+00
RMM:  11    -0.231600362134E+04   -0.94138E-02   -0.58134E-03  4441   0.499E-02    0.283E+00
RMM:  12    -0.231599234978E+04    0.11272E-01   -0.16266E-03  4109   0.224E-02    0.239E+00
RMM:  13    -0.231599151987E+04    0.82991E-03   -0.14739E-03  4209   0.199E-02    0.227E+00
RMM:  14    -0.231597810843E+04    0.13411E-01   -0.26743E-03  4210   0.242E-02    0.142E+00
RMM:  15    -0.231596553672E+04    0.12572E-01   -0.48339E-03  4332   0.323E-02    0.749E-01
RMM:  16    -0.231596336225E+04    0.21745E-02   -0.16203E-03  4041   0.247E-02    0.673E-01
RMM:  17    -0.231595932466E+04    0.40376E-02   -0.30183E-03  4600   0.216E-02    0.637E-01
RMM:  18    -0.231595538999E+04    0.39347E-02   -0.22643E-03  4309   0.214E-02    0.652E-01
RMM:  19    -0.231595186746E+04    0.35225E-02   -0.17590E-03  4336   0.175E-02    0.696E-01
RMM:  20    -0.231594839696E+04    0.34705E-02   -0.11141E-03  4012   0.153E-02    0.753E-01
RMM:  21    -0.231594488952E+04    0.35074E-02   -0.76743E-04  3856   0.128E-02    0.820E-01
RMM:  22    -0.231594255107E+04    0.23385E-02   -0.35922E-04  3375   0.971E-03    0.868E-01
RMM:  23    -0.231594510205E+04   -0.25510E-02   -0.13356E-04  3092   0.619E-03    0.821E-01
RMM:  24    -0.231594680120E+04   -0.16992E-02   -0.11696E-04  2933   0.523E-03    0.790E-01
RMM:  25    -0.231595462408E+04   -0.78229E-02   -0.23691E-03  4125   0.197E-02    0.716E-01
RMM:  26    -0.231596860187E+04   -0.13978E-01   -0.85434E-03  4423   0.381E-02    0.111E+00
RMM:  27    -0.231597194101E+04   -0.33391E-02   -0.15885E-03  3970   0.225E-02    0.127E+00
RMM:  28    -0.231597279494E+04   -0.85393E-03   -0.35139E-04  3431   0.876E-03    0.133E+00
RMM:  29    -0.231597216991E+04    0.62503E-03   -0.22911E-05  2880   0.503E-03    0.130E+00
RMM:  30    -0.231596766775E+04    0.45022E-02   -0.67977E-04  3621   0.107E-02    0.108E+00
RMM:  31    -0.231596055685E+04    0.71109E-02   -0.28516E-03  4353   0.219E-02    0.839E-01
RMM:  32    -0.231595833831E+04    0.22185E-02   -0.93149E-04  3825   0.152E-02    0.809E-01
RMM:  33    -0.231595601163E+04    0.23267E-02   -0.85805E-04  3973   0.117E-02    0.807E-01
RMM:  34    -0.231595332805E+04    0.26836E-02   -0.85162E-04  3927   0.135E-02    0.841E-01
RMM:  35    -0.231595116780E+04    0.21602E-02   -0.55098E-04  3644   0.104E-02    0.875E-01
RMM:  36    -0.231595241924E+04   -0.12514E-02   -0.71554E-05  2978   0.594E-03    0.853E-01
RMM:  37    -0.231595372418E+04   -0.13049E-02   -0.12660E-04  3004   0.516E-03    0.834E-01
RMM:  38    -0.231595632564E+04   -0.26015E-02   -0.50066E-04  3592   0.929E-03    0.813E-01
RMM:  39    -0.231596386985E+04   -0.75442E-02   -0.41690E-03  4472   0.260E-02    0.897E-01
RMM:  40    -0.231596715320E+04   -0.32834E-02   -0.12865E-03  3951   0.173E-02    0.101E+00
RMM:  41    -0.231596677952E+04    0.37368E-03   -0.13795E-04  3044   0.677E-03    0.100E+00
RMM:  42    -0.231596677481E+04    0.47085E-05   -0.12486E-05  2731   0.297E-03
   5 F= -.23369160E+04 E0= -.23369044E+04  d E =-.317484E+00  mag=     6.8544
       N       E                     dE             d eps       ncg     rms          rms(c)
DAV:   1    -0.231604645673E+04   -0.79677E-01   -0.18998E+00  4484   0.132E+00    0.113E+00
RMM:   2    -0.231611423401E+04   -0.67777E-01   -0.16209E-01  5616   0.275E-01    0.299E+00
RMM:   3    -0.231606019452E+04    0.54039E-01   -0.43415E-02  4775   0.141E-01    0.116E+00
RMM:   4    -0.231606200416E+04   -0.18096E-02   -0.31913E-02  5448   0.780E-02    0.208E+00
RMM:   5    -0.231604442069E+04    0.17583E-01   -0.98597E-03  5121   0.496E-02    0.907E-01
RMM:   6    -0.231603960205E+04    0.48186E-02   -0.24712E-03  5069   0.295E-02    0.808E-01
RMM:   7    -0.231603826576E+04    0.13363E-02   -0.72775E-04  4361   0.131E-02    0.819E-01
RMM:   8    -0.231603309107E+04    0.51747E-02   -0.11778E-03  4030   0.169E-02    0.900E-01
RMM:   9    -0.231603337765E+04   -0.28657E-03   -0.73476E-05  2991   0.789E-03    0.895E-01
RMM:  10    -0.231603194329E+04    0.14344E-02   -0.39783E-04  3507   0.104E-02    0.814E-01
RMM:  11    -0.231603835681E+04   -0.64135E-02   -0.24512E-03  4448   0.245E-02    0.641E-01
RMM:  12    -0.231605939259E+04   -0.21036E-01   -0.23871E-02  4758   0.700E-02    0.652E-01
RMM:  13    -0.231608654004E+04   -0.27147E-01   -0.19528E-02  4810   0.609E-02    0.182E+00
RMM:  14    -0.231606364034E+04    0.22900E-01   -0.62717E-03  4423   0.435E-02    0.101E+00
RMM:  15    -0.231605559106E+04    0.80493E-02   -0.61684E-03  4689   0.370E-02    0.828E-01
RMM:  16    -0.231605166172E+04    0.39293E-02   -0.28481E-03  4760   0.272E-02    0.744E-01
RMM:  17    -0.231604675831E+04    0.49034E-02   -0.24577E-03  4700   0.222E-02    0.744E-01
RMM:  18    -0.231604242729E+04    0.43310E-02   -0.18395E-03  4305   0.197E-02    0.788E-01
RMM:  19    -0.231604156501E+04    0.86228E-03   -0.30132E-04  3371   0.865E-03    0.797E-01
RMM:  20    -0.231604144412E+04    0.12090E-03   -0.35889E-05  2927   0.402E-03    0.797E-01
RMM:  21    -0.231604163281E+04   -0.18869E-03   -0.63032E-06  2823   0.242E-03    0.798E-01
RMM:  22    -0.231604181975E+04   -0.18694E-03   -0.12751E-05  2689   0.226E-03    0.808E-01
RMM:  23    -0.231604262035E+04   -0.80060E-03   -0.52089E-05  2970   0.364E-03    0.818E-01
RMM:  24    -0.231604290752E+04   -0.28718E-03   -0.10689E-05  2594   0.284E-03    0.817E-01
RMM:  25    -0.231604336534E+04   -0.45782E-03   -0.21636E-05  2478   0.225E-03    0.809E-01
RMM:  26    -0.231604897838E+04   -0.56130E-02   -0.21229E-03  4365   0.189E-02    0.793E-01
RMM:  27    -0.231606006317E+04   -0.11085E-01   -0.73868E-03  4773   0.356E-02    0.106E+00
RMM:  28    -0.231606104127E+04   -0.97809E-03   -0.64083E-04  3661   0.165E-02    0.113E+00
RMM:  29    -0.231605953173E+04    0.15095E-02   -0.96311E-05  3050   0.627E-03    0.108E+00
RMM:  30    -0.231605676257E+04    0.27692E-02   -0.33973E-04  3384   0.802E-03    0.996E-01
RMM:  31    -0.231605103949E+04    0.57231E-02   -0.29430E-03  4562   0.219E-02    0.942E-01
RMM:  32    -0.231604390459E+04    0.71349E-02   -0.54626E-03  4651   0.305E-02    0.956E-01
RMM:  33    -0.231604577673E+04   -0.18721E-02   -0.30911E-04  3340   0.121E-02    0.939E-01
RMM:  34    -0.231604636109E+04   -0.58436E-03   -0.65904E-05  2957   0.467E-03    0.928E-01
RMM:  35    -0.231604850486E+04   -0.21438E-02   -0.37533E-04  3428   0.829E-03    0.927E-01
RMM:  36    -0.231604640436E+04    0.21005E-02   -0.26355E-04  3277   0.738E-03    0.927E-01
RMM:  37    -0.231604485546E+04    0.15489E-02   -0.23767E-04  3277   0.687E-03    0.935E-01
RMM:  38    -0.231604167290E+04    0.31826E-02   -0.90845E-04  3958   0.125E-02    0.970E-01
RMM:  39    -0.231604868748E+04   -0.70146E-02   -0.30049E-03  4299   0.225E-02    0.964E-01
RMM:  40    -0.231605056841E+04   -0.18809E-02   -0.55814E-04  3561   0.127E-02    0.987E-01
RMM:  41    -0.231605336740E+04   -0.27990E-02   -0.83197E-04  4062   0.118E-02    0.104E+00
RMM:  42    -0.231605297008E+04    0.39732E-03   -0.45165E-05  2920   0.628E-03    0.104E+00
RMM:  43    -0.231605275095E+04    0.21914E-03   -0.33166E-05  2795   0.330E-03    0.107E+00
RMM:  44    -0.231604876032E+04    0.39906E-02   -0.11271E-03  4080   0.137E-02    0.103E+00
RMM:  45    -0.231604611481E+04    0.26455E-02   -0.10890E-03  3936   0.150E-02    0.109E+00
RMM:  46    -0.231603782462E+04    0.82902E-02   -0.70051E-03  4777   0.337E-02    0.124E+00
RMM:  47    -0.231603499031E+04    0.28343E-02   -0.16711E-03  4195   0.204E-02    0.134E+00
RMM:  48    -0.231603460169E+04    0.38863E-03   -0.26279E-04  3327   0.686E-03    0.135E+00
RMM:  49    -0.231603533441E+04   -0.73273E-03   -0.27374E-05  2807   0.451E-03    0.134E+00
RMM:  50    -0.231603909474E+04   -0.37603E-02   -0.88232E-04  3865   0.122E-02    0.128E+00
RMM:  51    -0.231604246793E+04   -0.33732E-02   -0.77415E-04  3798   0.125E-02    0.127E+00
RMM:  52    -0.231604784871E+04   -0.53808E-02   -0.18588E-03  4309   0.181E-02    0.133E+00
RMM:  53    -0.231604478687E+04    0.30618E-02   -0.59293E-04  3737   0.127E-02    0.133E+00
RMM:  54    -0.231606309768E+04   -0.18311E-01   -0.18252E-02  4860   0.543E-02    0.173E+00
RMM:  55    -0.231606811544E+04   -0.50178E-02   -0.33936E-03  4355   0.312E-02    0.192E+00
RMM:  56    -0.231606020809E+04    0.79073E-02   -0.13693E-03  4067   0.182E-02    0.165E+00
RMM:  57    -0.231604726642E+04    0.12942E-01   -0.14051E-02  4786   0.476E-02    0.143E+00
RMM:  58    -0.231605736562E+04   -0.10099E-01   -0.53565E-03  4631   0.337E-02    0.156E+00
RMM:  59    -0.231605095222E+04    0.64134E-02   -0.11547E-03  4062   0.181E-02    0.130E+00
RMM:  60    -0.231605404644E+04   -0.30942E-02   -0.10575E-03  4271   0.149E-02    0.127E+00
RMM:  61    -0.231604682477E+04    0.72217E-02   -0.27893E-03  4588   0.227E-02    0.109E+00
RMM:  62    -0.231603354426E+04    0.13281E-01   -0.13308E-02  4834   0.477E-02    0.128E+00
RMM:  63    -0.231602696525E+04    0.65790E-02   -0.46133E-03  4492   0.326E-02    0.148E+00
RMM:  64    -0.231602031208E+04    0.66532E-02   -0.33502E-03  4657   0.226E-02    0.167E+00
RMM:  65    -0.231601985812E+04    0.45396E-03   -0.26365E-04  3322   0.111E-02    0.168E+00
RMM:  66    -0.231602076760E+04   -0.90947E-03   -0.33635E-05  2926   0.325E-03    0.166E+00
RMM:  67    -0.231602029956E+04    0.46803E-03   -0.27132E-05  2823   0.291E-03    0.169E+00
RMM:  68    -0.231602281872E+04   -0.25192E-02   -0.17771E-04  3000   0.579E-03    0.162E+00
RMM:  69    -0.231602808109E+04   -0.52624E-02   -0.10824E-03  4048   0.137E-02    0.148E+00
RMM:  70    -0.231602460736E+04    0.34737E-02   -0.50240E-04  3706   0.982E-03    0.160E+00
RMM:  71    -0.231602428687E+04    0.32050E-03   -0.59748E-05  2896   0.483E-03    0.163E+00
RMM:  72    -0.231602446814E+04   -0.18127E-03   -0.94736E-06  2567   0.243E-03    0.162E+00
RMM:  73    -0.231602400520E+04    0.46294E-03   -0.12592E-05  2581   0.213E-03    0.164E+00
RMM:  74    -0.231602368155E+04    0.32365E-03   -0.88949E-06  2615   0.199E-03    0.165E+00
RMM:  75    -0.231602373592E+04   -0.54369E-04   -0.87133E-07  2090   0.125E-03    0.165E+00
RMM:  76    -0.231602407084E+04   -0.33493E-03   -0.33648E-06  1802   0.108E-03    0.164E+00
RMM:  77    -0.231603108412E+04   -0.70133E-02   -0.25769E-03  4347   0.202E-02    0.140E+00
RMM:  78    -0.231602421212E+04    0.68720E-02   -0.20486E-03  4397   0.181E-02    0.162E+00
RMM:  79    -0.231602377077E+04    0.44134E-03   -0.11186E-04  3121   0.699E-03    0.164E+00
RMM:  80    -0.231602449785E+04   -0.72708E-03   -0.18520E-05  2688   0.269E-03    0.161E+00
RMM:  81    -0.231603241147E+04   -0.79136E-02   -0.30047E-03  4357   0.220E-02    0.135E+00
RMM:  82    -0.231600440003E+04    0.28011E-01   -0.25405E-02  4803   0.623E-02    0.220E+00
RMM:  83    -0.231600248949E+04    0.19105E-02   -0.12231E-03  4340   0.194E-02    0.224E+00
RMM:  84    -0.231600618477E+04   -0.36953E-02   -0.28705E-04  3430   0.803E-03    0.211E+00
RMM:  85    -0.231600578847E+04    0.39630E-03   -0.23366E-05  2741   0.342E-03    0.211E+00
RMM:  86    -0.231600536266E+04    0.42581E-03   -0.70646E-06  2475   0.166E-03    0.211E+00
RMM:  87    -0.231604811079E+04   -0.42748E-01   -0.81028E-02  4967   0.113E-01    0.948E-01
RMM:  88    -0.231604387929E+04    0.42315E-02   -0.33121E-03  4219   0.403E-02    0.937E-01
RMM:  89    -0.231603865264E+04    0.52267E-02   -0.20898E-03  4280   0.191E-02    0.105E+00
RMM:  90    -0.231603703641E+04    0.16162E-02   -0.42604E-04  3441   0.108E-02    0.111E+00
RMM:  91    -0.231603420830E+04    0.28281E-02   -0.80920E-04  4024   0.117E-02    0.120E+00
RMM:  92    -0.231603921569E+04   -0.50074E-02   -0.95752E-04  3851   0.130E-02    0.112E+00
RMM:  93    -0.231603980647E+04   -0.59078E-03   -0.56868E-05  2893   0.530E-03    0.114E+00
RMM:  94    -0.231604318776E+04   -0.33813E-02   -0.60993E-04  3613   0.102E-02    0.111E+00
RMM:  95    -0.231604737799E+04   -0.41902E-02   -0.11793E-03  4056   0.146E-02    0.111E+00
RMM:  96    -0.231604951201E+04   -0.21340E-02   -0.54459E-04  3537   0.106E-02    0.114E+00
RMM:  97    -0.231606326036E+04   -0.13748E-01   -0.74003E-03  4617   0.341E-02    0.167E+00
RMM:  98    -0.231606510610E+04   -0.18457E-02   -0.98430E-04  3850   0.197E-02    0.176E+00
RMM:  99    -0.231606099447E+04    0.41116E-02   -0.25424E-04  3346   0.925E-03    0.158E+00
RMM: 100    -0.231605786938E+04    0.31251E-02   -0.33526E-04  3283   0.816E-03    0.143E+00
RMM: 101    -0.231605615072E+04    0.17187E-02   -0.14474E-04  3010   0.620E-03    0.133E+00
RMM: 102    -0.231607219100E+04   -0.16040E-01   -0.93915E-03  4662   0.388E-02    0.189E+00
RMM: 103    -0.231608378604E+04   -0.11595E-01   -0.33504E-03  4286   0.274E-02    0.235E+00
RMM: 104    -0.231608128670E+04    0.24993E-02   -0.37922E-04  3507   0.140E-02    0.231E+00
[...]
RMM:   2    -0.231914788030E+04   -0.19036E-01   -0.19728E-01  6306   0.244E-01    0.238E-01
RMM:   3    -0.231914964229E+04   -0.17620E-02   -0.20039E-02  5897   0.864E-02    0.302E-01
RMM:   4    -0.231914893695E+04    0.70534E-03   -0.22260E-03  5197   0.215E-02    0.109E-01
RMM:   5    -0.231914886548E+04    0.71470E-04   -0.36297E-04  4284   0.114E-02    0.800E-02
RMM:   6    -0.231914880564E+04    0.59844E-04   -0.25356E-04  4165   0.104E-02    0.471E-02
RMM:   7    -0.231914878076E+04    0.24880E-04   -0.54671E-05  3173   0.681E-03    0.178E-02
RMM:   8    -0.231914877788E+04    0.28756E-05   -0.11074E-05  2873   0.476E-03
 129 F= -.23400682E+04 E0= -.23400682E+04  d E =-.135173E-01  mag=     3.0000
       N       E                     dE             d eps       ncg     rms          rms(c)
DAV:   1    -0.231913712303E+04    0.11658E-01   -0.12054E+00  4456   0.111E+00    0.377E-01
RMM:   2    -0.231915647709E+04   -0.19354E-01   -0.20547E-01  6055   0.260E-01    0.194E-01
RMM:   3    -0.231915767835E+04   -0.12013E-02   -0.20675E-02  5754   0.956E-02    0.123E-01
RMM:   4    -0.231915769875E+04   -0.20406E-04   -0.19468E-03  5148   0.209E-02    0.119E-01
RMM:   5    -0.231915766893E+04    0.29818E-04   -0.39866E-04  4035   0.134E-02    0.114E-01
RMM:   6    -0.231915756839E+04    0.10054E-03   -0.25594E-04  4495   0.108E-02    0.584E-02
RMM:   7    -0.231915753492E+04    0.33474E-04   -0.61864E-05  3007   0.697E-03    0.208E-02
RMM:   8    -0.231915752877E+04    0.61530E-05   -0.10228E-05  2886   0.355E-03
 130 F= -.23400765E+04 E0= -.23400765E+04  d E =-.832047E-02  mag=     3.0000
       N       E                     dE             d eps       ncg     rms          rms(c)
DAV:   1    -0.231914850898E+04    0.90259E-02   -0.64039E-01  4528   0.804E-01    0.276E-01
RMM:   2    -0.231915872669E+04   -0.10218E-01   -0.10840E-01  6057   0.189E-01    0.143E-01
RMM:   3    -0.231915935323E+04   -0.62654E-03   -0.10858E-02  5697   0.702E-02    0.943E-02
RMM:   4    -0.231915937380E+04   -0.20569E-04   -0.10516E-03  4664   0.154E-02    0.968E-02
RMM:   5    -0.231915933402E+04    0.39778E-04   -0.20988E-04  3213   0.989E-03    0.792E-02
RMM:   6    -0.231915928783E+04    0.46189E-04   -0.15075E-04  3875   0.921E-03    0.434E-02
RMM:   7    -0.231915926729E+04    0.20541E-04   -0.39192E-05  2961   0.613E-03    0.148E-02
RMM:   8    -0.231915926429E+04    0.30050E-05   -0.67029E-06  2858   0.319E-03
 131 F= -.23400780E+04 E0= -.23400780E+04  d E =-.974506E-02  mag=     3.0000
       N       E                     dE             d eps       ncg     rms          rms(c)
DAV:   1    -0.231914615259E+04    0.13115E-01   -0.12757E+00  4456   0.116E+00    0.362E-01
RMM:   2    -0.231916417207E+04   -0.18019E-01   -0.18904E-01  6031   0.254E-01    0.245E-01
RMM:   3    -0.231916569203E+04   -0.15200E-02   -0.19141E-02  5730   0.978E-02    0.316E-01
RMM:   4    -0.231916496826E+04    0.72376E-03   -0.18966E-03  5321   0.214E-02    0.106E-01
RMM:   5    -0.231916487838E+04    0.89880E-04   -0.34091E-04  4156   0.118E-02    0.813E-02
RMM:   6    -0.231916482799E+04    0.50387E-04   -0.33280E-04  4756   0.123E-02    0.582E-02
RMM:   7    -0.231916478611E+04    0.41882E-04   -0.81420E-05  3126   0.811E-03    0.202E-02
RMM:   8    -0.231916478053E+04    0.55808E-05   -0.12807E-05  2890   0.430E-03
 132 F= -.23400835E+04 E0= -.23400835E+04  d E =-.556717E-02  mag=     3.0000
       N       E                     dE             d eps       ncg     rms          rms(c)
DAV:   1    -0.231913840888E+04    0.26377E-01   -0.18740E+00  4456   0.140E+00    0.439E-01
RMM:   2    -0.231916483790E+04   -0.26429E-01   -0.27670E-01  6031   0.308E-01    0.307E-01
RMM:   3    -0.231916713911E+04   -0.23012E-02   -0.28229E-02  5751   0.118E-01    0.400E-01
RMM:   4    -0.231916597610E+04    0.11630E-02   -0.28066E-03  5670   0.261E-02    0.128E-01
RMM:   5    -0.231916584816E+04    0.12794E-03   -0.50860E-04  4516   0.139E-02    0.993E-02
RMM:   6    -0.231916576923E+04    0.78926E-04   -0.47862E-04  5133   0.144E-02    0.705E-02
RMM:   7    -0.231916570924E+04    0.59993E-04   -0.12107E-04  3441   0.933E-03    0.257E-02
RMM:   8    -0.231916569990E+04    0.93396E-05   -0.18396E-05  2903   0.462E-03
 133 F= -.23400845E+04 E0= -.23400845E+04  d E =-.654445E-02  mag=     3.0000
       N       E                     dE             d eps       ncg     rms          rms(c)
DAV:   1    -0.231916322257E+04    0.24867E-02   -0.19909E-01  4560   0.456E-01    0.142E-01
RMM:   2    -0.231916599795E+04   -0.27754E-02   -0.29187E-02  6124   0.101E-01    0.897E-02
RMM:   3    -0.231916621943E+04   -0.22148E-03   -0.29583E-03  4949   0.369E-02    0.112E-01
RMM:   4    -0.231916613302E+04    0.86406E-04   -0.28541E-04  3035   0.873E-03    0.430E-02
RMM:   5    -0.231916611772E+04    0.15305E-04   -0.49137E-05  2964   0.549E-03    0.318E-02
RMM:   6    -0.231916611332E+04    0.44024E-05   -0.52647E-05  2961   0.615E-03
 134 F= -.23400849E+04 E0= -.23400849E+04  d E =-.693945E-02  mag=     3.0000
       N       E                     dE             d eps       ncg     rms          rms(c)
DAV:   1    -0.231915317231E+04    0.12945E-01   -0.12334E+00  4456   0.114E+00    0.342E-01
RMM:   2    -0.231917130147E+04   -0.18129E-01   -0.18115E-01  6196   0.253E-01    0.372E-01
RMM:   3    -0.231917203136E+04   -0.72989E-03   -0.18740E-02  5816   0.907E-02    0.306E-01
RMM:   4    -0.231917131173E+04    0.71964E-03   -0.18441E-03  5377   0.219E-02    0.983E-02
RMM:   5    -0.231917124753E+04    0.64200E-04   -0.37384E-04  4264   0.122E-02    0.834E-02
RMM:   6    -0.231917117822E+04    0.69311E-04   -0.29450E-04  4703   0.116E-02    0.484E-02
RMM:   7    -0.231917115039E+04    0.27825E-04   -0.66035E-05  3091   0.752E-03    0.195E-02
RMM:   8    -0.231917114528E+04    0.51066E-05   -0.13524E-05  2885   0.447E-03
 135 F= -.23400905E+04 E0= -.23400905E+04  d E =-.558968E-02  mag=     3.0000
       N       E                     dE             d eps       ncg     rms          rms(c)
DAV:   1    -0.231914867319E+04    0.22477E-01   -0.16223E+00  4456   0.130E+00    0.394E-01
RMM:   2    -0.231917248765E+04   -0.23814E-01   -0.23876E-01  6105   0.289E-01    0.418E-01
RMM:   3    -0.231917355782E+04   -0.10702E-02   -0.24969E-02  5775   0.106E-01    0.352E-01
RMM:   4    -0.231917261686E+04    0.94096E-03   -0.24343E-03  5511   0.251E-02    0.115E-01
RMM:   5    -0.231917252954E+04    0.87325E-04   -0.50073E-04  4502   0.138E-02    0.949E-02
RMM:   6    -0.231917244373E+04    0.85806E-04   -0.38725E-04  4886   0.131E-02    0.568E-02
RMM:   7    -0.231917240603E+04    0.37700E-04   -0.89498E-05  3269   0.848E-03    0.232E-02
RMM:   8    -0.231917239859E+04    0.74479E-05   -0.17715E-05  2889   0.479E-03
 136 F= -.23400924E+04 E0= -.23400924E+04  d E =-.748629E-02  mag=     3.0000
       N       E                     dE             d eps       ncg     rms          rms(c)
DAV:   1    -0.231915316148E+04    0.19245E-01   -0.15521E+00  4456   0.125E+00    0.354E-01
RMM:   2    -0.231917674928E+04   -0.23588E-01   -0.23543E-01  6344   0.277E-01    0.404E-01
RMM:   3    -0.231917764079E+04   -0.89151E-03   -0.24054E-02  5839   0.952E-02    0.290E-01
RMM:   4    -0.231917706900E+04    0.57179E-03   -0.24185E-03  5301   0.226E-02    0.111E-01
RMM:   5    -0.231917698953E+04    0.79469E-04   -0.36093E-04  4102   0.114E-02    0.920E-02
RMM:   6    -0.231917689728E+04    0.92253E-04   -0.31787E-04  4498   0.118E-02    0.470E-02
RMM:   7    -0.231917687627E+04    0.21006E-04   -0.84994E-05  3344   0.780E-03    0.209E-02
RMM:   8    -0.231917687124E+04    0.50377E-05   -0.15202E-05  2887   0.487E-03
 137 F= -.23400977E+04 E0= -.23400977E+04  d E =-.528319E-02  mag=     3.0000
       N       E                     dE             d eps       ncg     rms          rms(c)
DAV:   1    -0.231911935127E+04    0.57525E-01   -0.38421E+00  4456   0.197E+00    0.559E-01
RMM:   2    -0.231917804749E+04   -0.58696E-01   -0.58554E-01  6282   0.436E-01    0.632E-01
RMM:   3    -0.231918021174E+04   -0.21643E-02   -0.62609E-02  5877   0.155E-01    0.435E-01
RMM:   4    -0.231917897504E+04    0.12367E-02   -0.59533E-03  5755   0.354E-02    0.175E-01
RMM:   5    -0.231917876880E+04    0.20624E-03   -0.89024E-04  5000   0.170E-02    0.144E-01
RMM:   6    -0.231917853638E+04    0.23242E-03   -0.77245E-04  5186   0.174E-02    0.733E-02
RMM:   7    -0.231917848660E+04    0.49785E-04   -0.21189E-04  4328   0.110E-02    0.350E-02
RMM:   8    -0.231917847073E+04    0.15873E-04   -0.32802E-05  2936   0.552E-03    0.148E-02
RMM:   9    -0.231917846721E+04    0.35209E-05   -0.97053E-06  2881   0.353E-03
 138 F= -.23401005E+04 E0= -.23401005E+04  d E =-.816639E-02  mag=     3.0000
       N       E                     dE             d eps       ncg     rms          rms(c)
DAV:   1    -0.231915873676E+04    0.19734E-01   -0.17295E+00  4472   0.134E+00    0.372E-01
RMM:   2    -0.231918239757E+04   -0.23661E-01   -0.24507E-01  6204   0.288E-01    0.267E-01
RMM:   3    -0.231918447909E+04   -0.20815E-02   -0.24370E-02  5788   0.102E-01    0.322E-01
RMM:   4    -0.231918375548E+04    0.72361E-03   -0.26951E-03  5392   0.239E-02    0.113E-01
RMM:   5    -0.231918365140E+04    0.10408E-03   -0.35541E-04  4213   0.117E-02    0.812E-02
RMM:   6    -0.231918360923E+04    0.42168E-04   -0.33119E-04  4550   0.120E-02    0.583E-02
RMM:   7    -0.231918356754E+04    0.41686E-04   -0.75799E-05  3237   0.767E-03    0.211E-02
RMM:   8    -0.231918356353E+04    0.40147E-05   -0.12355E-05  2889   0.457E-03
 139 F= -.23401062E+04 E0= -.23401062E+04  d E =-.570197E-02  mag=     3.0000
       N       E                     dE             d eps       ncg     rms          rms(c)
DAV:   1    -0.231908466693E+04    0.98901E-01   -0.70449E+00  4472   0.270E+00    0.755E-01
RMM:   2    -0.231918215409E+04   -0.97487E-01   -0.10058E+00  6181   0.584E-01    0.580E-01
RMM:   3    -0.231919003246E+04   -0.78784E-02   -0.10127E-01  5826   0.209E-01    0.653E-01
RMM:   4    -0.231918714098E+04    0.28915E-02   -0.10997E-02  6094   0.488E-02    0.232E-01
RMM:   5    -0.231918671636E+04    0.42461E-03   -0.14840E-03  5168   0.220E-02    0.167E-01
RMM:   6    -0.231918652211E+04    0.19425E-03   -0.13276E-03  5507   0.227E-02    0.119E-01
RMM:   7    -0.231918635996E+04    0.16215E-03   -0.33088E-04  4821   0.136E-02    0.496E-02
RMM:   8    -0.231918633365E+04    0.26308E-04   -0.49189E-05  2985   0.606E-03    0.230E-02
RMM:   9    -0.231918632643E+04    0.72254E-05   -0.18456E-05  2901   0.427E-03
 140 F= -.23401102E+04 E0= -.23401102E+04  d E =-.970224E-02  mag=     3.0000
       N       E                     dE             d eps       ncg     rms          rms(c)
DAV:   1    -0.231915964402E+04    0.26690E-01   -0.19181E+00  4456   0.138E+00    0.381E-01
RMM:   2    -0.231918874768E+04   -0.29104E-01   -0.30509E-01  6239   0.307E-01    0.222E-01
RMM:   3    -0.231919132963E+04   -0.25819E-02   -0.31297E-02  5797   0.108E-01    0.251E-01
RMM:   4    -0.231919109046E+04    0.23917E-03   -0.30040E-03  4884   0.226E-02    0.131E-01
RMM:   5    -0.231919093880E+04    0.15166E-03   -0.32265E-04  3989   0.114E-02    0.862E-02
RMM:   6    -0.231919090137E+04    0.37437E-04   -0.35869E-04  4591   0.126E-02    0.643E-02
RMM:   7    -0.231919085107E+04    0.50293E-04   -0.90977E-05  3163   0.795E-03    0.258E-02
RMM:   8    -0.231919084448E+04    0.65980E-05   -0.13567E-05  2909   0.430E-03
 141 F= -.23401153E+04 E0= -.23401153E+04  d E =-.507839E-02  mag=     3.0000
       N       E                     dE             d eps       ncg     rms          rms(c)
DAV:   1    -0.231910784144E+04    0.83010E-01   -0.52240E+00  4456   0.228E+00    0.630E-01
RMM:   2    -0.231918719967E+04   -0.79358E-01   -0.83129E-01  6223   0.507E-01    0.386E-01
RMM:   3    -0.231919439800E+04   -0.71983E-02   -0.86887E-02  5833   0.182E-01    0.444E-01
RMM:   4    -0.231919357838E+04    0.81962E-03   -0.82573E-03  5941   0.383E-02    0.219E-01
RMM:   5    -0.231919318256E+04    0.39583E-03   -0.96741E-04  4717   0.171E-02    0.148E-01
RMM:   6    -0.231919305221E+04    0.13035E-03   -0.97712E-04  5385   0.194E-02    0.108E-01
RMM:   7    -0.231919292088E+04    0.13133E-03   -0.27656E-04  4478   0.119E-02    0.487E-02
RMM:   8    -0.231919289571E+04    0.25171E-04   -0.42424E-05  2988   0.521E-03    0.225E-02
RMM:   9    -0.231919288972E+04    0.59875E-05   -0.17141E-05  2886   0.421E-03
 142 F= -.23401183E+04 E0= -.23401183E+04  d E =-.806260E-02  mag=     3.0000
       N       E                     dE             d eps       ncg     rms          rms(c)
DAV:   1    -0.231916601429E+04    0.26881E-01   -0.18947E+00  4456   0.135E+00    0.397E-01
RMM:   2    -0.231919559886E+04   -0.29585E-01   -0.31079E-01  6210   0.302E-01    0.207E-01
RMM:   3    -0.231919792962E+04   -0.23308E-02   -0.32251E-02  5764   0.110E-01    0.152E-01
RMM:   4    -0.231919809344E+04   -0.16381E-03   -0.30386E-03  5062   0.226E-02    0.140E-01
RMM:   5    -0.231919798042E+04    0.11302E-03   -0.40581E-04  4067   0.120E-02    0.108E-01
RMM:   6    -0.231919790536E+04    0.75060E-04   -0.23635E-04  4304   0.102E-02    0.649E-02
RMM:   7    -0.231919786231E+04    0.43047E-04   -0.13342E-04  3110   0.868E-03    0.293E-02
RMM:   8    -0.231919785290E+04    0.94095E-05   -0.18989E-05  2893   0.468E-03
 143 F= -.23401239E+04 E0= -.23401239E+04  d E =-.561404E-02  mag=     3.0000
       N       E                     dE             d eps       ncg     rms          rms(c)
DAV:   1    -0.231909699581E+04    0.10087E+00   -0.61176E+00  4456   0.243E+00    0.717E-01
RMM:   2    -0.231919268962E+04   -0.95694E-01   -0.10058E+00  6209   0.545E-01    0.389E-01
RMM:   3    -0.231920071431E+04   -0.80247E-02   -0.10733E-01  5804   0.200E-01    0.308E-01
RMM:   4    -0.231920112081E+04   -0.40649E-03   -0.99329E-03  5975   0.412E-02    0.263E-01
RMM:   5    -0.231920070549E+04    0.41532E-03   -0.13064E-03  5096   0.190E-02    0.190E-01
RMM:   6    -0.231920039686E+04    0.30863E-03   -0.71292E-04  4950   0.164E-02    0.962E-02
RMM:   7    -0.231920033882E+04    0.58042E-04   -0.42248E-04  4216   0.141E-02    0.677E-02
RMM:   8    -0.231920028481E+04    0.54006E-04   -0.74874E-05  3061   0.659E-03    0.286E-02
RMM:   9    -0.231920027810E+04    0.67077E-05   -0.19404E-05  2900   0.462E-03
 144 F= -.23401275E+04 E0= -.23401275E+04  d E =-.923187E-02  mag=     3.0000
       N       E                     dE             d eps       ncg     rms          rms(c)
DAV:   1    -0.231916535368E+04    0.34931E-01   -0.22223E+00  4456   0.143E+00    0.432E-01
RMM:   2    -0.231920162406E+04   -0.36270E-01   -0.38067E-01  6211   0.321E-01    0.227E-01
RMM:   3    -0.231920468971E+04   -0.30657E-02   -0.40957E-02  5764   0.120E-01    0.147E-01
RMM:   4    -0.231920488203E+04   -0.19231E-03   -0.37050E-03  5084   0.240E-02    0.128E-01
RMM:   5    -0.231920483035E+04    0.51680E-04   -0.47515E-04  4454   0.131E-02    0.129E-01
RMM:   6    -0.231920472173E+04    0.10862E-03   -0.25741E-04  4248   0.968E-03    0.733E-02
RMM:   7    -0.231920467549E+04    0.46242E-04   -0.13403E-04  3030   0.865E-03    0.338E-02
RMM:   8    -0.231920466304E+04    0.12448E-04   -0.25820E-05  2916   0.507E-03    0.144E-02
RMM:   9    -0.231920466120E+04    0.18379E-05   -0.67072E-06  2860   0.313E-03
 145 F= -.23401327E+04 E0= -.23401327E+04  d E =-.519002E-02  mag=     3.0000
       N       E                     dE             d eps       ncg     rms          rms(c)
DAV:   1    -0.231915998554E+04    0.44677E-01   -0.25805E+00  4456   0.154E+00    0.465E-01
RMM:   2    -0.231920208531E+04   -0.42100E-01   -0.44191E-01  6219   0.346E-01    0.243E-01
RMM:   3    -0.231920564439E+04   -0.35591E-02   -0.47672E-02  5757   0.130E-01    0.154E-01
RMM:   4    -0.231920583641E+04   -0.19202E-03   -0.42545E-03  5161   0.257E-02    0.120E-01
RMM:   5    -0.231920576694E+04    0.69477E-04   -0.48776E-04  4711   0.143E-02    0.115E-01
RMM:   6    -0.231920566715E+04    0.99782E-04   -0.30724E-04  4461   0.108E-02    0.761E-02
RMM:   7    -0.231920563620E+04    0.30957E-04   -0.12268E-04  2986   0.796E-03    0.468E-02
RMM:   8    -0.231920561381E+04    0.22386E-04   -0.30566E-05  2896   0.505E-03    0.155E-02
RMM:   9    -0.231920561106E+04    0.27529E-05   -0.68689E-06  2863   0.304E-03
 146 F= -.23401346E+04 E0= -.23401346E+04  d E =-.702635E-02  mag=     3.0000
       N       E                     dE             d eps       ncg     rms          rms(c)
DAV:   1    -0.231917954942E+04    0.26064E-01   -0.17345E+00  4480   0.123E+00    0.377E-01
RMM:   2    -0.231920746805E+04   -0.27919E-01   -0.29253E-01  6220   0.271E-01    0.202E-01
RMM:   3    -0.231921025204E+04   -0.27840E-02   -0.33666E-02  5804   0.105E-01    0.208E-01
RMM:   4    -0.231921020435E+04    0.47696E-04   -0.30011E-03  4388   0.201E-02    0.137E-01
RMM:   5    -0.231921000427E+04    0.20008E-03   -0.31830E-04  4190   0.117E-02    0.659E-02
RMM:   6    -0.231920996586E+04    0.38405E-04   -0.16841E-04  4202   0.103E-02    0.214E-02
RMM:   7    -0.231920996544E+04    0.42077E-06   -0.27349E-05  2916   0.677E-03
 147 F= -.23401397E+04 E0= -.23401397E+04  d E =-.510230E-02  mag=     3.0000
       N       E                     dE             d eps       ncg     rms          rms(c)
DAV:   1    -0.231914972778E+04    0.60238E-01   -0.36319E+00  4472   0.177E+00    0.538E-01
RMM:   2    -0.231920639101E+04   -0.56663E-01   -0.59513E-01  6214   0.393E-01    0.283E-01
RMM:   3    -0.231921141294E+04   -0.50219E-02   -0.65783E-02  5792   0.153E-01    0.241E-01
RMM:   4    -0.231921178139E+04   -0.36844E-03   -0.65884E-03  5574   0.296E-02    0.235E-01
RMM:   5    -0.231921124660E+04    0.53479E-03   -0.76916E-04  4910   0.159E-02    0.101E-01
RMM:   6    -0.231921118567E+04    0.60927E-04   -0.40960E-04  4840   0.132E-02    0.598E-02
RMM:   7    -0.231921116190E+04    0.23775E-04   -0.16146E-04  3265   0.101E-02    0.405E-02
RMM:   8    -0.231921114145E+04    0.20446E-04   -0.28407E-05  2915   0.514E-03    0.137E-02
RMM:   9    -0.231921113860E+04    0.28496E-05   -0.97265E-06  2874   0.338E-03
 148 F= -.23401419E+04 E0= -.23401419E+04  d E =-.737089E-02  mag=     3.0000
       N       E                     dE             d eps       ncg     rms          rms(c)
DAV:   1    -0.231916615042E+04    0.44991E-01   -0.28525E+00  4472   0.156E+00    0.489E-01
RMM:   2    -0.231921149922E+04   -0.45349E-01   -0.47407E-01  6209   0.350E-01    0.301E-01
RMM:   3    -0.231921639628E+04   -0.48971E-02   -0.52115E-02  5959   0.133E-01    0.423E-01
RMM:   4    -0.231921513469E+04    0.12616E-02   -0.52964E-03  5424   0.285E-02    0.140E-01
RMM:   5    -0.231921489252E+04    0.24217E-03   -0.52056E-04  4389   0.138E-02    0.779E-02
RMM:   6    -0.231921486723E+04    0.25294E-04   -0.29930E-04  4509   0.133E-02    0.458E-02
RMM:   7    -0.231921485103E+04    0.16199E-04   -0.76914E-05  2972   0.770E-03    0.260E-02
RMM:   8    -0.231921484237E+04    0.86638E-05   -0.12456E-05  2898   0.421E-03
 149 F= -.23401464E+04 E0= -.23401464E+04  d E =-.447944E-02  mag=     3.0000
       N       E                     dE             d eps       ncg     rms          rms(c)
DAV:   1    -0.231919684141E+04    0.18010E-01   -0.10176E+00  4528   0.938E-01    0.299E-01
RMM:   2    -0.231921373682E+04   -0.16895E-01   -0.17604E-01  6234   0.211E-01    0.199E-01
RMM:   3    -0.231921569926E+04   -0.19624E-02   -0.20318E-02  5851   0.799E-02    0.272E-01
RMM:   4    -0.231921514319E+04    0.55607E-03   -0.18469E-03  4019   0.174E-02    0.853E-02
RMM:   5    -0.231921505571E+04    0.87482E-04   -0.20146E-04  3931   0.947E-03    0.478E-02
RMM:   6    -0.231921504598E+04    0.97250E-05   -0.11683E-04  3825   0.880E-03    0.275E-02
RMM:   7    -0.231921504039E+04    0.55873E-05   -0.29033E-05  2899   0.585E-03
 150 F= -.23401471E+04 E0= -.23401471E+04  d E =-.514769E-02  mag=     3.0000
