       N       E                     dE             d eps       ncg     rms          rms(c)
DAV:   1     0.120972237549E+05    0.12097E+05   -0.83194E+05  4640   0.140E+03
DAV:   2    -0.130124971517E+04   -0.13398E+05   -0.12891E+05  5040   0.318E+02
DAV:   3    -0.249838751060E+04   -0.11971E+04   -0.11876E+04  5440   0.101E+02
DAV:   4    -0.252350635935E+04   -0.25119E+02   -0.24996E+02  5760   0.176E+01
DAV:   5    -0.252412963994E+04   -0.62328E+00   -0.62221E+00  5920   0.245E+00    0.171E+02
RMM:   6    -0.147978335086E+04    0.10443E+04   -0.19079E+03  4497   0.377E+01    0.729E+01
RMM:   7    -0.165782242726E+04   -0.17804E+03   -0.27425E+02  5022   0.133E+01    0.559E+01
RMM:   8    -0.169894416960E+04   -0.41122E+02   -0.82041E+01  5172   0.779E+00    0.434E+01
RMM:   9    -0.177617812383E+04   -0.77234E+02   -0.59271E+01  4981   0.742E+00    0.330E+01
RMM:  10    -0.190754973882E+04   -0.13137E+03   -0.56934E+01  5134   0.703E+00    0.201E+01
RMM:  11    -0.203086656740E+04   -0.12332E+03   -0.52418E+01  4888   0.578E+00    0.154E+01
RMM:  12    -0.214840316121E+04   -0.11754E+03   -0.70913E+01  4576   0.625E+00    0.116E+01
RMM:  13    -0.227121253273E+04   -0.12281E+03   -0.11236E+02  4504   0.715E+00    0.764E+00
RMM:  14    -0.230735121667E+04   -0.36139E+02   -0.37401E+01  4800   0.477E+00    0.566E+00
RMM:  15    -0.231230498525E+04   -0.49538E+01   -0.78997E+00  5335   0.214E+00    0.410E+00
RMM:  16    -0.231641496003E+04   -0.41100E+01   -0.37818E+00  4697   0.120E+00    0.234E+00
RMM:  17    -0.231909467991E+04   -0.26797E+01   -0.16571E+00  4644   0.920E-01    0.145E+00
RMM:  18    -0.232027957382E+04   -0.11849E+01   -0.49508E-01  4951   0.474E-01    0.875E-01
RMM:  19    -0.232056699199E+04   -0.28742E+00   -0.14298E-01  4890   0.248E-01    0.502E-01
RMM:  20    -0.232065888681E+04   -0.91895E-01   -0.46828E-02  4652   0.159E-01    0.310E-01
RMM:  21    -0.232068055065E+04   -0.21664E-01   -0.14542E-02  4749   0.111E-01    0.243E-01
RMM:  22    -0.232069334816E+04   -0.12798E-01   -0.69081E-03  4533   0.681E-02    0.137E-01
RMM:  23    -0.232070345063E+04   -0.10102E-01   -0.35458E-03  4552   0.508E-02    0.122E-01
RMM:  24    -0.232070724758E+04   -0.37970E-02   -0.17345E-03  4673   0.342E-02    0.613E-02
RMM:  25    -0.232071034615E+04   -0.30986E-02   -0.13224E-03  4507   0.298E-02    0.442E-02
RMM:  26    -0.232071191113E+04   -0.15650E-02   -0.74211E-04  4169   0.251E-02    0.159E-02
RMM:  27    -0.232071235481E+04   -0.44368E-03   -0.23180E-04  4004   0.151E-02    0.910E-03
RMM:  28    -0.232071249056E+04   -0.13575E-03   -0.63100E-05  3666   0.824E-03    0.625E-03
RMM:  29    -0.232071261283E+04   -0.12227E-03   -0.33271E-05  3381   0.572E-03    0.460E-03
RMM:  30    -0.232071271359E+04   -0.10076E-03   -0.29226E-05  3359   0.498E-03    0.359E-03
RMM:  31    -0.232071274632E+04   -0.32723E-04   -0.11769E-05  2978   0.366E-03    0.137E-03
RMM:  32    -0.232071275737E+04   -0.11054E-04   -0.55595E-06  2584   0.254E-03    0.104E-03
RMM:  33    -0.232071275947E+04   -0.20985E-05   -0.25411E-06  2443   0.190E-03
   1 F= -.23412464E+04 E0= -.23412460E+04  d E =-.702519E-03  mag=     4.9934
       N       E                     dE             d eps       ncg     rms          rms(c)
DAV:   1    -0.232069226093E+04    0.20496E-01   -0.21541E+00  4320   0.747E-01    0.311E-01
RMM:   2    -0.232069138520E+04    0.87573E-03   -0.96518E-03  3641   0.415E-02    0.178E-01
RMM:   3    -0.232069085040E+04    0.53480E-03   -0.32141E-03  4423   0.201E-02    0.395E-02
RMM:   4    -0.232069084570E+04    0.47006E-05   -0.23090E-04  3027   0.122E-02    0.497E-02
RMM:   5    -0.232069082663E+04    0.19072E-04   -0.47837E-05  2718   0.337E-03    0.202E-02
RMM:   6    -0.232069082043E+04    0.61943E-05   -0.21953E-05  2537   0.254E-03
   2 F= -.23412244E+04 E0= -.23412239E+04  d E =-.980918E-03  mag=     4.9913
       N       E                     dE             d eps       ncg     rms          rms(c)
DAV:   1    -0.232069905173E+04   -0.82251E-02   -0.85538E+00  4480   0.147E+00    0.623E-01
RMM:   2    -0.232069443906E+04    0.46127E-02   -0.29198E-02  3850   0.832E-02    0.353E-01
RMM:   3    -0.232069260160E+04    0.18375E-02   -0.13908E-02  4699   0.416E-02    0.895E-02
RMM:   4    -0.232069248231E+04    0.11928E-03   -0.11176E-03  3745   0.247E-02    0.124E-01
RMM:   5    -0.232069234881E+04    0.13351E-03   -0.21554E-04  3383   0.628E-03    0.357E-02
RMM:   6    -0.232069232222E+04    0.26586E-04   -0.10104E-04  3074   0.428E-03    0.172E-02
RMM:   7    -0.232069232202E+04    0.19878E-06   -0.15678E-05  2734   0.366E-03
   3 F= -.23412260E+04 E0= -.23412257E+04  d E =-.501464E-03  mag=     4.9945
       N       E                     dE             d eps       ncg     rms          rms(c)
DAV:   1    -0.232066512963E+04    0.27193E-01   -0.42835E+00  4480   0.109E+00    0.440E-01
RMM:   2    -0.232066279885E+04    0.23308E-02   -0.14736E-02  3781   0.570E-02    0.254E-01
RMM:   3    -0.232066224664E+04    0.55221E-03   -0.63372E-03  4710   0.292E-02    0.248E-01
RMM:   4    -0.232066178751E+04    0.45913E-03   -0.11671E-03  3959   0.189E-02    0.795E-02
RMM:   5    -0.232066172939E+04    0.58118E-04   -0.13596E-04  3199   0.507E-03    0.235E-02
RMM:   6    -0.232066171450E+04    0.14891E-04   -0.50961E-05  2883   0.348E-03    0.155E-02
RMM:   7    -0.232066171352E+04    0.97674E-06   -0.19596E-05  2773   0.305E-03
   4 F= -.23411952E+04 E0= -.23411949E+04  d E =-.588952E-03  mag=     4.9944
       N       E                     dE             d eps       ncg     rms          rms(c)
DAV:   1    -0.232073711151E+04   -0.75397E-01   -0.84567E+00  4480   0.151E+00    0.628E-01
RMM:   2    -0.232073195683E+04    0.51547E-02   -0.30290E-02  3923   0.799E-02    0.360E-01
RMM:   3    -0.232073079008E+04    0.11667E-02   -0.84598E-03  4951   0.350E-02    0.367E-01
RMM:   4    -0.232073011308E+04    0.67701E-03   -0.32011E-03  4635   0.266E-02    0.202E-01
RMM:   5    -0.232072983506E+04    0.27802E-03   -0.52347E-04  3856   0.101E-02    0.325E-02
RMM:   6    -0.232072981883E+04    0.16231E-04   -0.80499E-05  3016   0.527E-03    0.215E-02
RMM:   7    -0.232072981078E+04    0.80539E-05   -0.47625E-05  3067   0.343E-03
   5 F= -.23412636E+04 E0= -.23412631E+04  d E =-.847413E-03  mag=     4.9925
       N       E                     dE             d eps       ncg     rms          rms(c)
DAV:   1    -0.232068565186E+04    0.44167E-01   -0.42537E+00  4800   0.107E+00    0.458E-01
RMM:   2    -0.232068253570E+04    0.31162E-02   -0.23207E-02  3878   0.656E-02    0.259E-01
RMM:   3    -0.232068136103E+04    0.11747E-02   -0.36783E-03  4802   0.244E-02    0.150E-01
RMM:   4    -0.232068150787E+04   -0.14684E-03   -0.14185E-03  4327   0.156E-02    0.191E-01
RMM:   5    -0.232068120314E+04    0.30473E-03   -0.42704E-04  3620   0.895E-03    0.364E-02
RMM:   6    -0.232068119710E+04    0.60444E-05   -0.56048E-05  2783   0.368E-03
   6 F= -.23412149E+04 E0= -.23412144E+04  d E =-.942587E-03  mag=     4.9915
       N       E                     dE             d eps       ncg     rms          rms(c)
DAV:   1    -0.232071515327E+04   -0.33950E-01   -0.84650E+00  4480   0.144E+00    0.623E-01
RMM:   2    -0.232070974940E+04    0.54039E-02   -0.41980E-02  3910   0.950E-02    0.344E-01
RMM:   3    -0.232070744196E+04    0.23074E-02   -0.79294E-03  5075   0.411E-02    0.145E-01
RMM:   4    -0.232070749580E+04   -0.53838E-04   -0.17874E-03  4223   0.177E-02    0.127E-01
RMM:   5    -0.232070740786E+04    0.87936E-04   -0.40655E-04  3371   0.109E-02    0.682E-02
RMM:   6    -0.232070737252E+04    0.35338E-04   -0.63215E-05  2958   0.421E-03    0.200E-02
RMM:   7    -0.232070737207E+04    0.45633E-06   -0.18920E-05  2728   0.284E-03
   7 F= -.23412409E+04 E0= -.23412406E+04  d E =-.552450E-03  mag=     4.9940
       N       E                     dE             d eps       ncg     rms          rms(c)
DAV:   1    -0.232069734497E+04    0.10028E-01   -0.44374E+00  4480   0.992E-01    0.465E-01
RMM:   2    -0.232069562940E+04    0.17156E-02   -0.26085E-02  4006   0.692E-02    0.351E-01
RMM:   3    -0.232069530754E+04    0.32186E-03   -0.51062E-03  5022   0.304E-02    0.365E-01
RMM:   4    -0.232069402391E+04    0.12836E-02   -0.26911E-03  4730   0.195E-02    0.120E-01
RMM:   5    -0.232069396881E+04    0.55104E-04   -0.41795E-04  3668   0.130E-02    0.376E-02
RMM:   6    -0.232069397730E+04   -0.84951E-05   -0.78811E-05  3126   0.516E-03
   8 F= -.23412277E+04 E0= -.23412277E+04  d E =-.764409E-04  mag=     4.9974
       N       E                     dE             d eps       ncg     rms          rms(c)
DAV:   1    -0.232070124133E+04   -0.72725E-02   -0.84770E+00  4480   0.123E+00    0.608E-01
RMM:   2    -0.232070468304E+04   -0.34417E-02   -0.52536E-02  4149   0.888E-02    0.673E-01
RMM:   3    -0.232070286504E+04    0.18180E-02   -0.82968E-03  5143   0.402E-02    0.478E-01
RMM:   4    -0.232070064471E+04    0.22203E-02   -0.44751E-03  4659   0.267E-02    0.159E-01
RMM:   5    -0.232070067057E+04   -0.25859E-04   -0.10009E-03  3868   0.205E-02    0.592E-02
RMM:   6    -0.232070071802E+04   -0.47450E-04   -0.13029E-04  3329   0.771E-03    0.413E-02
RMM:   7    -0.232070074824E+04   -0.30215E-04   -0.53240E-05  3104   0.544E-03    0.250E-02
RMM:   8    -0.232070076816E+04   -0.19926E-04   -0.18704E-05  2920   0.365E-03    0.193E-02
RMM:   9    -0.232070077607E+04   -0.79083E-05   -0.10111E-05  2766   0.271E-03
   9 F= -.23412343E+04 E0= -.23412317E+04  d E =-.513174E-02  mag=     4.9445
       N       E                     dE             d eps       ncg     rms          rms(c)
DAV:   1    -0.232068960949E+04    0.11159E-01   -0.42533E+00  4480   0.924E-01    0.470E-01
RMM:   2    -0.232069008513E+04   -0.47564E-03   -0.21852E-02  3995   0.627E-02    0.332E-01
RMM:   3    -0.232069030376E+04   -0.21862E-03   -0.44410E-03  4966   0.298E-02    0.415E-01
RMM:   4    -0.232068894109E+04    0.13627E-02   -0.24785E-03  4937   0.190E-02    0.141E-01
RMM:   5    -0.232068890919E+04    0.31898E-04   -0.45270E-04  3649   0.113E-02    0.472E-02
RMM:   6    -0.232068892306E+04   -0.13868E-04   -0.62666E-05  3058   0.600E-03    0.355E-02
RMM:   7    -0.232068893647E+04   -0.13409E-04   -0.40489E-05  3011   0.382E-03    0.203E-02
RMM:   8    -0.232068894543E+04   -0.89677E-05   -0.15446E-05  2802   0.303E-03
  10 F= -.23412231E+04 E0= -.23412225E+04  d E =-.125199E-02  mag=     4.9807
       N       E                     dE             d eps       ncg     rms          rms(c)
DAV:   1    -0.232071535820E+04   -0.26422E-01   -0.81443E+00  4480   0.128E+00    0.601E-01
RMM:   2    -0.232071645919E+04   -0.11010E-02   -0.38488E-02  4098   0.820E-02    0.360E-01
RMM:   3    -0.232071650304E+04   -0.43845E-04   -0.65400E-03  5274   0.384E-02    0.455E-01
RMM:   4    -0.232071492058E+04    0.15825E-02   -0.37454E-03  5015   0.227E-02    0.166E-01
RMM:   5    -0.232071497132E+04   -0.50742E-04   -0.68301E-04  3705   0.134E-02    0.440E-02
RMM:   6    -0.232071496800E+04    0.33209E-05   -0.83792E-05  3129   0.769E-03
  11 F= -.23412480E+04 E0= -.23412479E+04  d E =-.335666E-03  mag=     4.9915
       N       E                     dE             d eps       ncg     rms          rms(c)
DAV:   1    -0.232071199822E+04    0.29731E-02   -0.42169E+00  4480   0.949E-01    0.444E-01
RMM:   2    -0.232071195211E+04    0.46110E-04   -0.25338E-02  3954   0.691E-02    0.246E-01
RMM:   3    -0.232071101950E+04    0.93261E-03   -0.37913E-03  4846   0.322E-02    0.136E-01
RMM:   4    -0.232071123652E+04   -0.21702E-03   -0.14299E-03  4543   0.155E-02    0.155E-01
RMM:   5    -0.232071104617E+04    0.19035E-03   -0.30205E-04  3368   0.815E-03    0.373E-02
RMM:   6    -0.232071102594E+04    0.20226E-04   -0.98510E-05  3138   0.460E-03    0.141E-02
RMM:   7    -0.232071102737E+04   -0.14280E-05   -0.15658E-05  2741   0.367E-03
  12 F= -.23412442E+04 E0= -.23412440E+04  d E =-.244606E-03  mag=     4.9960
       N       E                     dE             d eps       ncg     rms          rms(c)
DAV:   1    -0.232069240621E+04    0.18620E-01   -0.81671E+00  4480   0.132E+00    0.627E-01
RMM:   2    -0.232069206431E+04    0.34190E-03   -0.47363E-02  4031   0.898E-02    0.403E-01
RMM:   3    -0.232069269661E+04   -0.63230E-03   -0.85930E-03  5471   0.416E-02    0.620E-01
RMM:   4    -0.232068991192E+04    0.27847E-02   -0.41046E-03  5058   0.239E-02    0.188E-01
RMM:   5    -0.232068988683E+04    0.25090E-04   -0.77880E-04  3653   0.133E-02    0.735E-02
RMM:   6    -0.232068985714E+04    0.29692E-04   -0.20379E-04  3371   0.903E-03    0.341E-02
RMM:   7    -0.232068986149E+04   -0.43483E-05   -0.50363E-05  3076   0.428E-03
  13 F= -.23412237E+04 E0= -.23412228E+04  d E =-.178990E-02  mag=     4.9830
       N       E                     dE             d eps       ncg     rms          rms(c)
DAV:   1    -0.232071568450E+04   -0.25827E-01   -0.23705E+00  4480   0.711E-01    0.384E-01
RMM:   2    -0.232071585638E+04   -0.17188E-03   -0.17430E-02  3865   0.541E-02    0.246E-01
RMM:   3    -0.232071583461E+04    0.21771E-04   -0.29763E-03  5059   0.232E-02    0.326E-01
RMM:   4    -0.232071494456E+04    0.89005E-03   -0.16316E-03  4428   0.152E-02    0.950E-02
RMM:   5    -0.232071495882E+04   -0.14262E-04   -0.25549E-04  3369   0.826E-03    0.259E-02
RMM:   6    -0.232071495191E+04    0.69125E-05   -0.32222E-05  2818   0.482E-03
  14 F= -.23412482E+04 E0= -.23412479E+04  d E =-.596107E-03  mag=     4.9905
       N       E                     dE             d eps       ncg     rms          rms(c)
DAV:   1    -0.232069945778E+04    0.15501E-01   -0.12748E+00  5200   0.472E-01    0.494E-01
RMM:   2    -0.232069624960E+04    0.32082E-02   -0.12319E-02  3737   0.448E-02    0.265E-01
RMM:   3    -0.232069581550E+04    0.43410E-03   -0.59144E-03  4624   0.278E-02    0.932E-02
RMM:   4    -0.232069570861E+04    0.10689E-03   -0.38910E-04  3846   0.100E-02    0.103E-01
RMM:   5    -0.232069561614E+04    0.92472E-04   -0.21186E-04  3420   0.628E-03    0.498E-02
RMM:   6    -0.232069560800E+04    0.81355E-05   -0.13520E-04  3284   0.510E-03    0.141E-02
RMM:   7    -0.232069560111E+04    0.68983E-05   -0.10538E-05  2548   0.315E-03
  15 F= -.23412296E+04 E0= -.23412292E+04  d E =-.794297E-03  mag=     4.9918
       N       E                     dE             d eps       ncg     rms          rms(c)
DAV:   1    -0.232070961245E+04   -0.14004E-01   -0.61781E-01  4720   0.319E-01    0.257E-01
RMM:   2    -0.232070918243E+04    0.43002E-03   -0.28712E-03  3470   0.209E-02    0.145E-01
RMM:   3    -0.232070913864E+04    0.43796E-04   -0.11190E-03  3997   0.126E-02    0.399E-02
RMM:   4    -0.232070912747E+04    0.11165E-04   -0.88856E-05  3042   0.537E-03    0.485E-02
RMM:   5    -0.232070910929E+04    0.18184E-04   -0.41306E-05  2597   0.329E-03    0.206E-02
RMM:   6    -0.232070910751E+04    0.17726E-05   -0.12607E-05  2429   0.232E-03
  16 F= -.23412427E+04 E0= -.23412424E+04  d E =-.703272E-03  mag=     4.9929
       N       E                     dE             d eps       ncg     rms          rms(c)
DAV:   1    -0.232071195819E+04   -0.28489E-02   -0.12340E+00  4640   0.456E-01    0.335E-01
RMM:   2    -0.232071174851E+04    0.20968E-03   -0.37189E-03  3519   0.262E-02    0.196E-01
RMM:   3    -0.232071174478E+04    0.37343E-05   -0.14302E-03  3843   0.140E-02    0.363E-02
RMM:   4    -0.232071173370E+04    0.11077E-04   -0.13007E-04  3093   0.974E-03    0.465E-02
RMM:   5    -0.232071171305E+04    0.20646E-04   -0.36085E-05  2635   0.317E-03    0.168E-02
RMM:   6    -0.232071171135E+04    0.17048E-05   -0.19412E-05  2635   0.254E-03
  17 F= -.23412453E+04 E0= -.23412450E+04  d E =-.720186E-03  mag=     4.9932
       N       E                     dE             d eps       ncg     rms          rms(c)
DAV:   1    -0.232070689502E+04    0.48180E-02   -0.63437E-01  4720   0.329E-01    0.269E-01
RMM:   2    -0.232070653529E+04    0.35973E-03   -0.30401E-03  3465   0.218E-02    0.153E-01
RMM:   3    -0.232070655460E+04   -0.19306E-04   -0.11812E-03  4267   0.135E-02    0.110E-01
RMM:   4    -0.232070647020E+04    0.84400E-04   -0.21711E-04  3134   0.731E-03    0.481E-02
RMM:   5    -0.232070644238E+04    0.27818E-04   -0.59672E-05  2865   0.388E-03    0.123E-02
RMM:   6    -0.232070644352E+04   -0.11372E-05   -0.24134E-05  2478   0.276E-03
  18 F= -.23412397E+04 E0= -.23412393E+04  d E =-.798291E-03  mag=     4.9926
       N       E                     dE             d eps       ncg     rms          rms(c)
DAV:   1    -0.232070880944E+04   -0.23671E-02   -0.12758E+00  4960   0.479E-01    0.490E-01
RMM:   2    -0.232070589044E+04    0.29190E-02   -0.13647E-02  3698   0.448E-02    0.258E-01
RMM:   3    -0.232070549186E+04    0.39859E-03   -0.46073E-03  4620   0.261E-02    0.135E-01
RMM:   4    -0.232070543051E+04    0.61347E-04   -0.59257E-04  3918   0.107E-02    0.128E-01
RMM:   5    -0.232070527107E+04    0.15944E-03   -0.29955E-04  3638   0.744E-03    0.333E-02
RMM:   6    -0.232070527056E+04    0.51149E-06   -0.74044E-05  2877   0.420E-03
  19 F= -.23412392E+04 E0= -.23412389E+04  d E =-.615816E-03  mag=     4.9936
       N       E                     dE             d eps       ncg     rms          rms(c)
DAV:   1    -0.232069983368E+04    0.54374E-02   -0.63202E-01  5200   0.375E-01    0.335E-01
RMM:   2    -0.232069908491E+04    0.74876E-03   -0.41195E-03  3469   0.303E-02    0.195E-01
RMM:   3    -0.232069882979E+04    0.25512E-03   -0.15989E-03  3600   0.151E-02    0.121E-01
RMM:   4    -0.232069870571E+04    0.12409E-03   -0.27889E-04  3038   0.117E-02    0.337E-02
RMM:   5    -0.232069868704E+04    0.18665E-04   -0.27447E-05  2651   0.291E-03    0.103E-02
RMM:   6    -0.232069868545E+04    0.15944E-05   -0.13018E-05  2329   0.218E-03
  20 F= -.23412324E+04 E0= -.23412320E+04  d E =-.720001E-03  mag=     4.9933
       N       E                     dE             d eps       ncg     rms          rms(c)
DAV:   1    -0.232071176878E+04   -0.13082E-01   -0.13171E+00  4640   0.511E-01    0.553E-01
RMM:   2    -0.232070725919E+04    0.45096E-02   -0.15282E-02  3730   0.543E-02    0.288E-01
RMM:   3    -0.232070670338E+04    0.55581E-03   -0.74396E-03  4536   0.329E-02    0.125E-01
RMM:   4    -0.232070655818E+04    0.14520E-03   -0.61432E-04  4053   0.115E-02    0.127E-01
RMM:   5    -0.232070638120E+04    0.17699E-03   -0.45667E-04  3791   0.834E-03    0.320E-02
RMM:   6    -0.232070638228E+04   -0.10814E-05   -0.54327E-05  2856   0.468E-03
  21 F= -.23412399E+04 E0= -.23412395E+04  d E =-.695540E-03  mag=     4.9935
       N       E                     dE             d eps       ncg     rms          rms(c)
DAV:   1    -0.232070476884E+04    0.16124E-02   -0.66223E-01  4720   0.364E-01    0.425E-01
RMM:   2    -0.232070181624E+04    0.29526E-02   -0.10302E-02  3654   0.395E-02    0.215E-01
RMM:   3    -0.232070147594E+04    0.34030E-03   -0.36852E-03  4432   0.244E-02    0.123E-01
RMM:   4    -0.232070140466E+04    0.71281E-04   -0.49867E-04  3826   0.981E-03    0.108E-01
RMM:   5    -0.232070128269E+04    0.12197E-03   -0.26156E-04  3452   0.655E-03    0.237E-02
RMM:   6    -0.232070128182E+04    0.87346E-06   -0.32258E-05  2703   0.387E-03
  22 F= -.23412350E+04 E0= -.23412347E+04  d E =-.673310E-03  mag=     4.9935
       N       E                     dE             d eps       ncg     rms          rms(c)
DAV:   1    -0.232071786341E+04   -0.16581E-01   -0.12439E+00  4560   0.495E-01    0.402E-01
RMM:   2    -0.232071645043E+04    0.14130E-02   -0.65271E-03  3678   0.321E-02    0.223E-01
RMM:   3    -0.232071637462E+04    0.75813E-04   -0.28460E-03  4515   0.203E-02    0.141E-01
RMM:   4    -0.232071623117E+04    0.14345E-03   -0.44460E-04  3609   0.102E-02    0.811E-02
RMM:   5    -0.232071616201E+04    0.69159E-04   -0.16006E-04  3351   0.531E-03    0.194E-02
RMM:   6    -0.232071616366E+04   -0.16443E-05   -0.30607E-05  2690   0.354E-03
  23 F= -.23412497E+04 E0= -.23412493E+04  d E =-.732023E-03  mag=     4.9933
       N       E                     dE             d eps       ncg     rms          rms(c)
DAV:   1    -0.232070612134E+04    0.10041E-01   -0.62681E-01  4160   0.342E-01    0.239E-01
RMM:   2    -0.232070602698E+04    0.94356E-04   -0.17558E-03  3476   0.184E-02    0.143E-01
RMM:   3    -0.232070612541E+04   -0.98427E-04   -0.86005E-04  3913   0.108E-02    0.127E-01
RMM:   4    -0.232070598478E+04    0.14063E-03   -0.18204E-04  2919   0.837E-03    0.198E-02
RMM:   5    -0.232070598119E+04    0.35863E-05   -0.24404E-05  2629   0.227E-03
  24 F= -.23412397E+04 E0= -.23412394E+04  d E =-.700008E-03  mag=     4.9934
       N       E                     dE             d eps       ncg     rms          rms(c)
DAV:   1    -0.232071413527E+04   -0.81505E-02   -0.12482E+00  4320   0.487E-01    0.358E-01
RMM:   2    -0.232071366346E+04    0.47181E-03   -0.55922E-03  3625   0.324E-02    0.206E-01
RMM:   3    -0.232071357586E+04    0.87596E-04   -0.21035E-03  4414   0.175E-02    0.448E-02
RMM:   4    -0.232071355086E+04    0.25000E-04   -0.17101E-04  3200   0.773E-03    0.694E-02
RMM:   5    -0.232071350809E+04    0.42774E-04   -0.69400E-05  2782   0.403E-03    0.134E-02
RMM:   6    -0.232071350775E+04    0.33753E-06   -0.13364E-05  2491   0.266E-03
  25 F= -.23412470E+04 E0= -.23412466E+04  d E =-.714987E-03  mag=     4.9934
       N       E                     dE             d eps       ncg     rms          rms(c)
DAV:   1    -0.232070940981E+04    0.40983E-02   -0.61149E-01  4480   0.379E-01    0.227E-01
RMM:   2    -0.232070930012E+04    0.10969E-03   -0.22975E-03  3541   0.213E-02    0.133E-01
RMM:   3    -0.232070925755E+04    0.42566E-04   -0.80774E-04  3852   0.111E-02    0.278E-02
RMM:   4    -0.232070925381E+04    0.37444E-05   -0.84439E-05  2757   0.821E-03
  26 F= -.23412427E+04 E0= -.23412423E+04  d E =-.790534E-03  mag=     4.9933
       N       E                     dE             d eps       ncg     rms          rms(c)
DAV:   1    -0.232071175717E+04   -0.24996E-02   -0.11802E+00  4480   0.509E-01    0.280E-01
RMM:   2    -0.232071182256E+04   -0.65389E-04   -0.31484E-03  3566   0.268E-02    0.168E-01
RMM:   3    -0.232071204621E+04   -0.22365E-03   -0.11335E-03  3967   0.137E-02    0.172E-01
RMM:   4    -0.232071182320E+04    0.22301E-03   -0.38415E-04  3323   0.102E-02    0.308E-02
RMM:   5    -0.232071181846E+04    0.47458E-05   -0.37636E-05  2807   0.356E-03
  27 F= -.23412456E+04 E0= -.23412452E+04  d E =-.697531E-03  mag=     4.9934
       N       E                     dE             d eps       ncg     rms          rms(c)
DAV:   1    -0.232075154188E+04   -0.39719E-01   -0.60546E-01  4960   0.373E-01    0.299E-01
RMM:   2    -0.232075053011E+04    0.10118E-02   -0.45518E-03  3620   0.304E-02    0.162E-01
RMM:   3    -0.232075042107E+04    0.10904E-03   -0.20984E-03  4431   0.169E-02    0.837E-02
RMM:   4    -0.232075036514E+04    0.55927E-04   -0.21754E-04  3194   0.750E-03    0.679E-02
RMM:   5    -0.232075031227E+04    0.52865E-04   -0.10972E-04  3080   0.472E-03    0.172E-02
RMM:   6    -0.232075031515E+04   -0.28793E-05   -0.39877E-05  2714   0.342E-03
  28 F= -.23412835E+04 E0= -.23412831E+04  d E =-.725100E-03  mag=     4.9932
       N       E                     dE             d eps       ncg     rms          rms(c)
DAV:   1    -0.232066238299E+04    0.87929E-01   -0.12057E+00  4960   0.545E-01    0.556E-01
RMM:   2    -0.232065729154E+04    0.50915E-02   -0.17240E-02  3781   0.551E-02    0.275E-01
RMM:   3    -0.232065666798E+04    0.62355E-03   -0.64648E-03  4631   0.316E-02    0.101E-01
RMM:   4    -0.232065658217E+04    0.85818E-04   -0.53181E-04  4053   0.110E-02    0.134E-01
RMM:   5    -0.232065643243E+04    0.14973E-03   -0.29449E-04  3464   0.717E-03    0.433E-02
RMM:   6    -0.232065642427E+04    0.81647E-05   -0.60575E-05  2925   0.443E-03
  29 F= -.23411905E+04 E0= -.23411902E+04  d E =-.663920E-03  mag=     4.9935
       N       E                     dE             d eps       ncg     rms          rms(c)
DAV:   1    -0.232072014279E+04   -0.63710E-01   -0.59291E-01  4800   0.369E-01    0.305E-01
RMM:   2    -0.232071900727E+04    0.11355E-02   -0.56472E-03  3599   0.313E-02    0.161E-01
RMM:   3    -0.232071886728E+04    0.13999E-03   -0.19014E-03  4451   0.166E-02    0.902E-02
RMM:   4    -0.232071882600E+04    0.41279E-04   -0.25216E-04  3303   0.773E-03    0.752E-02
RMM:   5    -0.232071876691E+04    0.59097E-04   -0.11220E-04  3095   0.484E-03    0.170E-02
RMM:   6    -0.232071876968E+04   -0.27743E-05   -0.30302E-05  2664   0.338E-03
  30 F= -.23412527E+04 E0= -.23412524E+04  d E =-.687732E-03  mag=     4.9936
       N       E                     dE             d eps       ncg     rms          rms(c)
DAV:   1    -0.232070205122E+04    0.16716E-01   -0.11899E+00  4480   0.511E-01    0.279E-01
RMM:   2    -0.232070214288E+04   -0.91661E-04   -0.27562E-03  3584   0.246E-02    0.167E-01
RMM:   3    -0.232070218944E+04   -0.46553E-04   -0.86578E-04  3672   0.117E-02    0.708E-02
RMM:   4    -0.232070218205E+04    0.73890E-05   -0.18210E-04  3046   0.856E-03    0.523E-02
RMM:   5    -0.232070216093E+04    0.21118E-04   -0.34225E-05  2738   0.341E-03    0.102E-02
RMM:   6    -0.232070215953E+04    0.14019E-05   -0.79401E-06  2495   0.202E-03
  31 F= -.23412354E+04 E0= -.23412351E+04  d E =-.722936E-03  mag=     4.9933
       N       E                     dE             d eps       ncg     rms          rms(c)
DAV:   1    -0.232070701668E+04   -0.48557E-02   -0.61957E-01  4480   0.368E-01    0.278E-01
RMM:   2    -0.232070653360E+04    0.48308E-03   -0.46885E-03  3781   0.269E-02    0.160E-01
RMM:   3    -0.232070638954E+04    0.14406E-03   -0.74496E-04  4359   0.132E-02    0.112E-01
RMM:   4    -0.232070646045E+04   -0.70908E-04   -0.48761E-04  3673   0.832E-03    0.128E-01
RMM:   5    -0.232070633244E+04    0.12801E-03   -0.14274E-04  3203   0.605E-03    0.198E-02
RMM:   6    -0.232070633265E+04   -0.21166E-06   -0.21322E-05  2694   0.265E-03
  32 F= -.23412404E+04 E0= -.23412400E+04  d E =-.769833E-03  mag=     4.9928
       N       E                     dE             d eps       ncg     rms          rms(c)
DAV:   1    -0.232070990351E+04   -0.35711E-02   -0.13146E+00  4640   0.463E-01    0.500E-01
RMM:   2    -0.232070716097E+04    0.27425E-02   -0.13780E-02  4085   0.413E-02    0.275E-01
RMM:   3    -0.232070645708E+04    0.70389E-03   -0.20591E-03  4608   0.244E-02    0.147E-01
RMM:   4    -0.232070646597E+04   -0.88837E-05   -0.78200E-04  3948   0.111E-02    0.991E-02
RMM:   5    -0.232070644533E+04    0.20638E-04   -0.31209E-04  3264   0.897E-03    0.803E-02
RMM:   6    -0.232070639656E+04    0.48770E-04   -0.63139E-05  2945   0.423E-03    0.138E-02
RMM:   7    -0.232070639533E+04    0.12297E-05   -0.10798E-05  2714   0.240E-03
  33 F= -.23412396E+04 E0= -.23412393E+04  d E =-.646768E-03  mag=     4.9937
       N       E                     dE             d eps       ncg     rms          rms(c)
DAV:   1    -0.232070838672E+04   -0.19902E-02   -0.68869E-01  4880   0.351E-01    0.455E-01
RMM:   2    -0.232070531991E+04    0.30668E-02   -0.14996E-02  4291   0.416E-02    0.258E-01
RMM:   3    -0.232070480309E+04    0.51682E-03   -0.23224E-03  4229   0.262E-02    0.209E-01
RMM:   4    -0.232070482961E+04   -0.26520E-04   -0.13994E-03  4493   0.136E-02    0.213E-01
RMM:   5    -0.232070445137E+04    0.37824E-03   -0.41962E-04  3664   0.907E-03    0.351E-02
RMM:   6    -0.232070445037E+04    0.10018E-05   -0.69887E-05  2942   0.435E-03
  34 F= -.23412384E+04 E0= -.23412381E+04  d E =-.569849E-03  mag=     4.9938
       N       E                     dE             d eps       ncg     rms          rms(c)
DAV:   1    -0.232071191470E+04   -0.74633E-02   -0.13356E+00  4800   0.474E-01    0.550E-01
RMM:   2    -0.232070839787E+04    0.35168E-02   -0.19915E-02  4440   0.484E-02    0.354E-01
RMM:   3    -0.232070829339E+04    0.10448E-03   -0.44887E-03  4544   0.323E-02    0.384E-01
RMM:   4    -0.232070741113E+04    0.88226E-03   -0.21660E-03  4708   0.171E-02    0.204E-01
RMM:   5    -0.232070712364E+04    0.28749E-03   -0.42300E-04  3721   0.980E-03    0.427E-02
RMM:   6    -0.232070712327E+04    0.36595E-06   -0.99756E-05  3085   0.585E-03
  35 F= -.23412404E+04 E0= -.23412400E+04  d E =-.877818E-03  mag=     4.9923
       N       E                     dE             d eps       ncg     rms          rms(c)
DAV:   1    -0.232071135873E+04   -0.42351E-02   -0.67755E-01  4880   0.337E-01    0.411E-01
RMM:   2    -0.232070896259E+04    0.23961E-02   -0.12268E-02  4181   0.381E-02    0.248E-01
RMM:   3    -0.232070858761E+04    0.37498E-03   -0.20091E-03  4132   0.234E-02    0.211E-01
RMM:   4    -0.232070853128E+04    0.56331E-04   -0.11778E-03  4314   0.125E-02    0.193E-01
RMM:   5    -0.232070824219E+04    0.28908E-03   -0.35142E-04  3538   0.845E-03    0.343E-02
RMM:   6    -0.232070824072E+04    0.14730E-05   -0.59853E-05  2920   0.431E-03
  36 F= -.23412421E+04 E0= -.23412418E+04  d E =-.738322E-03  mag=     4.9920
       N       E                     dE             d eps       ncg     rms          rms(c)
DAV:   1    -0.232071104974E+04   -0.28075E-02   -0.12823E+00  4640   0.461E-01    0.426E-01
RMM:   2    -0.232070965689E+04    0.13928E-02   -0.86146E-03  3944   0.345E-02    0.250E-01
RMM:   3    -0.232070937845E+04    0.27844E-03   -0.17216E-03  4334   0.202E-02    0.183E-01
RMM:   4    -0.232070956115E+04   -0.18270E-03   -0.11625E-03  4414   0.126E-02    0.204E-01
RMM:   5    -0.232070922277E+04    0.33838E-03   -0.37832E-04  3529   0.848E-03    0.309E-02
RMM:   6    -0.232070922275E+04    0.23239E-07   -0.53041E-05  2872   0.375E-03
  37 F= -.23412425E+04 E0= -.23412422E+04  d E =-.664556E-03  mag=     4.9933
       N       E                     dE             d eps       ncg     rms          rms(c)
DAV:   1    -0.232072022998E+04   -0.11007E-01   -0.58553E-01  4560   0.354E-01    0.247E-01
RMM:   2    -0.232072024729E+04   -0.17313E-04   -0.42202E-03  3800   0.266E-02    0.216E-01
RMM:   3    -0.232072013894E+04    0.10836E-03   -0.12160E-03  4213   0.151E-02    0.193E-01
RMM:   4    -0.232071984722E+04    0.29172E-03   -0.41901E-04  3701   0.830E-03    0.575E-02
RMM:   5    -0.232071984606E+04    0.11584E-05   -0.99977E-05  3064   0.524E-03
  38 F= -.23412537E+04 E0= -.23412536E+04  d E =-.280487E-03  mag=     4.9957
       N       E                     dE             d eps       ncg     rms          rms(c)
DAV:   1    -0.232070211605E+04    0.17731E-01   -0.10701E+00  4560   0.471E-01    0.262E-01
RMM:   2    -0.232070338072E+04   -0.12647E-02   -0.55300E-03  3909   0.309E-02    0.356E-01
RMM:   3    -0.232070244109E+04    0.93963E-03   -0.14650E-03  4242   0.174E-02    0.150E-01
RMM:   4    -0.232070230782E+04    0.13327E-03   -0.43477E-04  4074   0.851E-03    0.639E-02
RMM:   5    -0.232070230894E+04   -0.11192E-05   -0.12316E-04  3227   0.602E-03    0.386E-02
RMM:   6    -0.232070230929E+04   -0.34446E-06   -0.26647E-05  2844   0.344E-03
  39 F= -.23412357E+04 E0= -.23412349E+04  d E =-.166277E-02  mag=     4.9863
       N       E                     dE             d eps       ncg     rms          rms(c)
DAV:   1    -0.232071257871E+04   -0.10270E-01   -0.53008E-01  4480   0.339E-01    0.185E-01
RMM:   2    -0.232071310440E+04   -0.52569E-03   -0.25052E-03  3806   0.212E-02    0.209E-01
RMM:   3    -0.232071282598E+04    0.27842E-03   -0.68662E-04  3765   0.111E-02    0.126E-01
RMM:   4    -0.232071271418E+04    0.11180E-03   -0.21592E-04  3228   0.641E-03    0.551E-02
RMM:   5    -0.232071272805E+04   -0.13866E-04   -0.95027E-05  3051   0.492E-03    0.395E-02
RMM:   6    -0.232071273055E+04   -0.24980E-05   -0.24312E-05  2694   0.306E-03
  40 F= -.23412457E+04 E0= -.23412454E+04  d E =-.603378E-03  mag=     4.9922
       N       E                     dE             d eps       ncg     rms          rms(c)
DAV:   1    -0.232071069682E+04    0.20312E-02   -0.10475E+00  4480   0.470E-01    0.209E-01
RMM:   2    -0.232071105486E+04   -0.35805E-03   -0.40572E-03  3778   0.268E-02    0.125E-01
RMM:   3    -0.232071083176E+04    0.22310E-03   -0.49975E-04  3890   0.128E-02    0.785E-02
RMM:   4    -0.232071089911E+04   -0.67343E-04   -0.31152E-04  3524   0.689E-03    0.107E-01
RMM:   5    -0.232071082655E+04    0.72561E-04   -0.10863E-04  2914   0.529E-03    0.397E-02
RMM:   6    -0.232071083537E+04   -0.88200E-05   -0.30624E-05  2715   0.285E-03
  41 F= -.23412450E+04 E0= -.23412446E+04  d E =-.814605E-03  mag=     4.9922
       N       E                     dE             d eps       ncg     rms          rms(c)
DAV:   1    -0.232070158889E+04    0.92377E-02   -0.53684E-01  4480   0.339E-01    0.200E-01
RMM:   2    -0.232070170506E+04   -0.11618E-03   -0.31513E-03  4001   0.225E-02    0.185E-01
RMM:   3    -0.232070167605E+04    0.29008E-04   -0.87083E-04  3756   0.136E-02    0.196E-01
RMM:   4    -0.232070144525E+04    0.23081E-03   -0.46369E-04  3914   0.776E-03    0.657E-02
RMM:   5    -0.232070142410E+04    0.21147E-04   -0.72773E-05  3043   0.470E-03    0.305E-02
RMM:   6    -0.232070141709E+04    0.70131E-05   -0.25464E-05  2896   0.332E-03
  42 F= -.23412357E+04 E0= -.23412337E+04  d E =-.392648E-02  mag=     4.9691
       N       E                     dE             d eps       ncg     rms          rms(c)
DAV:   1    -0.232072678862E+04   -0.25365E-01   -0.10736E+00  4480   0.481E-01    0.389E-01
RMM:   2    -0.232072721983E+04   -0.43121E-03   -0.94018E-03  4543   0.385E-02    0.348E-01
RMM:   3    -0.232072678180E+04    0.43803E-03   -0.31980E-03  4815   0.246E-02    0.288E-01
RMM:   4    -0.232072604097E+04    0.74084E-03   -0.99545E-04  4487   0.120E-02    0.900E-02
RMM:   5    -0.232072604707E+04   -0.61004E-05   -0.22393E-04  3377   0.679E-03    0.517E-02
RMM:   6    -0.232072603629E+04    0.10773E-04   -0.46026E-05  2941   0.451E-03    0.246E-02
RMM:   7    -0.232072604123E+04   -0.49418E-05   -0.17404E-05  2879   0.287E-03
  43 F= -.23412588E+04 E0= -.23412587E+04  d E =-.101023E-03  mag=     4.9915
