       N       E                     dE             d eps       ncg     rms          rms(c)
DAV:   1     0.127173578868E+05    0.12717E+05   -0.82668E+05  4416   0.144E+03
DAV:   2    -0.105481039717E+04   -0.13772E+05   -0.13190E+05  5264   0.330E+02
DAV:   3    -0.246466665206E+04   -0.14099E+04   -0.13970E+04  5312   0.111E+02
DAV:   4    -0.251009909750E+04   -0.45432E+02   -0.45206E+02  6664   0.296E+01
DAV:   5    -0.251092194941E+04   -0.82285E+00   -0.82144E+00  5512   0.323E+00    0.171E+02
RMM:   6    -0.149220326248E+04    0.10187E+04   -0.19591E+03  4375   0.393E+01    0.765E+01
RMM:   7    -0.166912320153E+04   -0.17692E+03   -0.32271E+02  5041   0.147E+01    0.643E+01
RMM:   8    -0.167793553059E+04   -0.88123E+01   -0.95740E+01  5226   0.898E+00    0.403E+01
RMM:   9    -0.178375149118E+04   -0.10582E+03   -0.50931E+01  4647   0.752E+00    0.295E+01
RMM:  10    -0.191939975239E+04   -0.13565E+03   -0.50844E+01  4964   0.691E+00    0.190E+01
RMM:  11    -0.203638742525E+04   -0.11699E+03   -0.54638E+01  4933   0.594E+00    0.161E+01
RMM:  12    -0.210096279818E+04   -0.64575E+02   -0.28190E+01  5117   0.438E+00    0.137E+01
RMM:  13    -0.221630858837E+04   -0.11535E+03   -0.89126E+01  4431   0.698E+00    0.805E+00
RMM:  14    -0.226981761402E+04   -0.53509E+02   -0.45550E+01  4527   0.494E+00    0.462E+00
RMM:  15    -0.229234306638E+04   -0.22525E+02   -0.21836E+01  4750   0.347E+00    0.285E+00
RMM:  16    -0.229635489006E+04   -0.40118E+01   -0.41191E+00  5001   0.169E+00    0.396E+00
RMM:  17    -0.229655509872E+04   -0.20021E+00   -0.62444E-01  5474   0.507E-01    0.375E+00
RMM:  18    -0.229674041956E+04   -0.18532E+00   -0.17681E-01  4851   0.247E-01    0.278E+00
RMM:  19    -0.229895539075E+04   -0.22150E+01   -0.17219E+00  4385   0.699E-01    0.407E+00
RMM:  20    -0.229797250890E+04    0.98288E+00   -0.19561E+00  4427   0.638E-01    0.401E+00
RMM:  21    -0.229748059283E+04    0.49192E+00   -0.30559E-01  4899   0.271E-01    0.450E+00
RMM:  22    -0.229897302387E+04   -0.14924E+01   -0.88850E-01  4504   0.347E-01    0.325E+00
RMM:  23    -0.230068122087E+04   -0.17082E+01   -0.17843E+00  4495   0.508E-01    0.497E+00
RMM:  24    -0.230081542597E+04   -0.13421E+00   -0.47686E-01  4592   0.331E-01    0.347E+00
RMM:  25    -0.230082031834E+04   -0.48924E-02   -0.83794E-02  5685   0.944E-02    0.323E+00
RMM:  26    -0.230082499161E+04   -0.46733E-02   -0.11340E-02  5002   0.445E-02    0.295E+00
RMM:  27    -0.230083750556E+04   -0.12514E-01   -0.22001E-02  4598   0.628E-02    0.234E+00
RMM:  28    -0.230090091656E+04   -0.63411E-01   -0.88301E-02  4648   0.126E-01    0.130E+00
RMM:  29    -0.230101184165E+04   -0.11093E+00   -0.85038E-02  4493   0.149E-01    0.103E+00
RMM:  30    -0.230104973706E+04   -0.37895E-01   -0.30137E-02  4614   0.100E-01    0.115E+00
RMM:  31    -0.230108766033E+04   -0.37923E-01   -0.45881E-02  4595   0.910E-02    0.948E-01
RMM:  32    -0.230111590000E+04   -0.28240E-01   -0.35514E-02  4442   0.997E-02    0.786E-01
RMM:  33    -0.230114210946E+04   -0.26209E-01   -0.17145E-02  4623   0.764E-02    0.612E-01
RMM:  34    -0.230115316417E+04   -0.11055E-01   -0.78494E-03  4745   0.587E-02    0.525E-01
RMM:  35    -0.230116035481E+04   -0.71906E-02   -0.32756E-03  4611   0.327E-02    0.433E-01
RMM:  36    -0.230116572019E+04   -0.53654E-02   -0.21092E-03  4125   0.261E-02    0.335E-01
RMM:  37    -0.230117079542E+04   -0.50752E-02   -0.21745E-03  4135   0.224E-02    0.323E-01
RMM:  38    -0.230117652022E+04   -0.57248E-02   -0.43696E-03  4139   0.288E-02    0.264E-01
RMM:  39    -0.230117903875E+04   -0.25185E-02   -0.33284E-03  4199   0.253E-02    0.153E-01
RMM:  40    -0.230117966519E+04   -0.62644E-03   -0.74351E-04  3994   0.116E-02    0.141E-01
RMM:  41    -0.230118007934E+04   -0.41415E-03   -0.28621E-04  3112   0.689E-03    0.135E-01
RMM:  42    -0.230118123585E+04   -0.11565E-02   -0.26184E-03  3931   0.160E-02    0.956E-02
RMM:  43    -0.230118138504E+04   -0.14919E-03   -0.44499E-04  3092   0.106E-02    0.470E-02
RMM:  44    -0.230118151318E+04   -0.12814E-03   -0.50271E-04  3251   0.755E-03    0.216E-02
RMM:  45    -0.230118156448E+04   -0.51299E-04   -0.28949E-04  2998   0.711E-03    0.110E-02
RMM:  46    -0.230118159532E+04   -0.30841E-04   -0.46311E-05  2878   0.420E-03    0.114E-02
RMM:  47    -0.230118160690E+04   -0.11588E-04   -0.12878E-05  2695   0.282E-03    0.554E-03
RMM:  48    -0.230118161262E+04   -0.57176E-05   -0.41745E-06  2444   0.180E-03
   1 F= -.23216165E+04 E0= -.23216165E+04  d E =-.232162E+04  mag=     3.0009
       N       E                     dE             d eps       ncg     rms          rms(c)
DAV:   1    -0.229912635530E+04    0.20553E+01   -0.16976E+02  4528   0.877E+00    0.488E+00
RMM:   2    -0.230377164979E+04   -0.46453E+01   -0.44480E+01  6458   0.318E+00    0.895E+00
RMM:   3    -0.230308292122E+04    0.68873E+00   -0.33176E+00  4527   0.103E+00    0.263E+00
RMM:   4    -0.230310572026E+04   -0.22799E-01   -0.42533E-01  5127   0.215E-01    0.165E+00
RMM:   5    -0.230309647598E+04    0.92443E-02   -0.47412E-02  4998   0.115E-01    0.133E+00
RMM:   6    -0.230309427573E+04    0.22002E-02   -0.46294E-02  5216   0.980E-02    0.118E+00
RMM:   7    -0.230307724003E+04    0.17036E-01   -0.28250E-02  5684   0.844E-02    0.292E-01
RMM:   8    -0.230307787659E+04   -0.63657E-03   -0.46744E-03  5001   0.423E-02    0.144E-01
RMM:   9    -0.230307900998E+04   -0.11334E-02   -0.10438E-03  4534   0.214E-02    0.815E-02
RMM:  10    -0.230307985953E+04   -0.84955E-03   -0.47134E-04  4187   0.142E-02    0.440E-02
RMM:  11    -0.230308013894E+04   -0.27941E-03   -0.14953E-04  3872   0.914E-03    0.178E-02
RMM:  12    -0.230308025240E+04   -0.11346E-03   -0.52345E-05  3360   0.607E-03    0.141E-02
RMM:  13    -0.230308030550E+04   -0.53101E-04   -0.19043E-05  2873   0.479E-03    0.711E-03
RMM:  14    -0.230308035028E+04   -0.44783E-04   -0.15050E-05  2846   0.399E-03    0.469E-03
RMM:  15    -0.230308036610E+04   -0.15824E-04   -0.62121E-06  2791   0.354E-03    0.317E-03
RMM:  16    -0.230308037615E+04   -0.10043E-04   -0.40348E-06  2722   0.231E-03    0.192E-03
RMM:  17    -0.230308038122E+04   -0.50728E-05   -0.22050E-06  2547   0.206E-03
   2 F= -.23235120E+04 E0= -.23235120E+04  d E =-.189551E+01  mag=     2.9991
       N       E                     dE             d eps       ncg     rms          rms(c)
DAV:   1    -0.230296828826E+04    0.11209E+00   -0.89528E+00  4656   0.202E+00    0.107E+00
RMM:   2    -0.230315741333E+04   -0.18913E+00   -0.19262E+00  6340   0.660E-01    0.109E+00
RMM:   3    -0.230316361586E+04   -0.62025E-02   -0.21350E-01  5729   0.241E-01    0.837E-01
RMM:   4    -0.230315920099E+04    0.44149E-02   -0.20914E-02  5343   0.529E-02    0.331E-01
RMM:   5    -0.230315798058E+04    0.12204E-02   -0.28854E-03  4711   0.204E-02    0.230E-01
RMM:   6    -0.230315714874E+04    0.83184E-03   -0.25703E-03  5401   0.255E-02    0.735E-02
RMM:   7    -0.230315711704E+04    0.31704E-04   -0.28049E-04  3639   0.119E-02    0.300E-02
RMM:   8    -0.230315711362E+04    0.34201E-05   -0.60726E-05  3075   0.577E-03
   3 F= -.23235880E+04 E0= -.23235879E+04  d E =-.197151E+01  mag=     2.9976
       N       E                     dE             d eps       ncg     rms          rms(c)
DAV:   1    -0.230193459574E+04    0.12225E+01   -0.73519E+01  4388   0.627E+00    0.666E+00
RMM:   2    -0.230338662931E+04   -0.14520E+01   -0.18747E+01  5983   0.192E+00    0.424E+00
RMM:   3    -0.230333809782E+04    0.48531E-01   -0.24067E+00  4652   0.105E+00    0.275E+00
RMM:   4    -0.230329868183E+04    0.39416E-01   -0.27114E-01  4865   0.287E-01    0.126E+00
RMM:   5    -0.230345383212E+04   -0.15515E+00   -0.17355E-01  4651   0.197E-01    0.575E-01
RMM:   6    -0.230357830510E+04   -0.12447E+00   -0.51825E-02  4499   0.128E-01    0.387E-01
RMM:   7    -0.230367482489E+04   -0.96520E-01   -0.37185E-02  4546   0.950E-02    0.257E-01
RMM:   8    -0.230372462302E+04   -0.49798E-01   -0.16022E-02  4564   0.692E-02    0.223E-01
RMM:   9    -0.230375332468E+04   -0.28702E-01   -0.72969E-03  4558   0.447E-02    0.149E-01
RMM:  10    -0.230378090443E+04   -0.27580E-01   -0.73522E-03  4379   0.494E-02    0.951E-02
RMM:  11    -0.230379132825E+04   -0.10424E-01   -0.39072E-03  4487   0.397E-02    0.553E-02
RMM:  12    -0.230379519518E+04   -0.38669E-02   -0.16576E-03  4441   0.243E-02    0.292E-02
RMM:  13    -0.230379625918E+04   -0.10640E-02   -0.37992E-04  4175   0.128E-02    0.170E-02
RMM:  14    -0.230379676002E+04   -0.50084E-03   -0.11676E-04  3626   0.725E-03    0.843E-03
RMM:  15    -0.230379687301E+04   -0.11299E-03   -0.27134E-05  3053   0.548E-03    0.471E-03
RMM:  16    -0.230379691666E+04   -0.43649E-04   -0.14322E-05  2885   0.365E-03    0.245E-03
RMM:  17    -0.230379692600E+04   -0.93356E-05   -0.55191E-06  2776   0.320E-03
   4 F= -.23242265E+04 E0= -.23242265E+04  d E =-.638520E+00  mag=     1.0010
       N       E                     dE             d eps       ncg     rms          rms(c)
DAV:   1    -0.230377487432E+04    0.22042E-01   -0.16874E+00  5096   0.988E-01    0.486E-01
RMM:   2    -0.230381401627E+04   -0.39142E-01   -0.40411E-01  6414   0.295E-01    0.359E-01
RMM:   3    -0.230381458707E+04   -0.57080E-03   -0.39632E-02  5436   0.910E-02    0.222E-01
RMM:   4    -0.230381432818E+04    0.25889E-03   -0.38898E-03  4690   0.213E-02    0.128E-01
RMM:   5    -0.230381417078E+04    0.15740E-03   -0.82433E-04  4782   0.144E-02    0.800E-02
RMM:   6    -0.230381408299E+04    0.87794E-04   -0.29780E-04  3724   0.106E-02    0.359E-02
RMM:   7    -0.230381407171E+04    0.11276E-04   -0.57618E-05  2912   0.558E-03    0.132E-02
RMM:   8    -0.230381407136E+04    0.35136E-06   -0.12290E-05  2832   0.338E-03
   5 F= -.23242435E+04 E0= -.23242435E+04  d E =-.655486E+00  mag=     1.0002
       N       E                     dE             d eps       ncg     rms          rms(c)
DAV:   1    -0.230374638655E+04    0.67685E-01   -0.20871E+01  4424   0.385E+00    0.172E+00
RMM:   2    -0.230406019659E+04   -0.31381E+00   -0.32956E+00  6269   0.961E-01    0.166E+00
RMM:   3    -0.230401845793E+04    0.41739E-01   -0.26325E-01  5729   0.289E-01    0.765E-01
RMM:   4    -0.230401499528E+04    0.34627E-02   -0.38542E-02  5796   0.793E-02    0.448E-01
RMM:   5    -0.230401330254E+04    0.16927E-02   -0.89935E-03  5504   0.489E-02    0.319E-01
RMM:   6    -0.230401154884E+04    0.17537E-02   -0.38318E-03  5692   0.355E-02    0.148E-01
RMM:   7    -0.230401118314E+04    0.36570E-03   -0.68996E-04  4737   0.202E-02    0.460E-02
RMM:   8    -0.230401110602E+04    0.77128E-04   -0.16209E-04  3856   0.809E-03    0.218E-02
RMM:   9    -0.230401108261E+04    0.23406E-04   -0.49749E-05  3037   0.625E-03    0.116E-02
RMM:  10    -0.230401107674E+04    0.58716E-05   -0.22151E-05  2908   0.480E-03
   6 F= -.23244403E+04 E0= -.23244403E+04  d E =-.196825E+00  mag=     1.0000
       N       E                     dE             d eps       ncg     rms          rms(c)
DAV:   1    -0.230401039772E+04    0.68489E-03   -0.21976E-01  5040   0.387E-01    0.176E-01
RMM:   2    -0.230401333744E+04   -0.29397E-02   -0.31363E-02  6299   0.939E-02    0.164E-01
RMM:   3    -0.230401302881E+04    0.30863E-03   -0.27920E-03  4204   0.291E-02    0.784E-02
RMM:   4    -0.230401299130E+04    0.37514E-04   -0.37928E-04  3172   0.896E-03    0.443E-02
RMM:   5    -0.230401297363E+04    0.17667E-04   -0.97531E-05  3117   0.688E-03    0.317E-02
RMM:   6    -0.230401295608E+04    0.17555E-04   -0.41898E-05  2930   0.597E-03    0.152E-02
RMM:   7    -0.230401295246E+04    0.36118E-05   -0.11350E-05  2802   0.439E-03
   7 F= -.23244422E+04 E0= -.23244422E+04  d E =-.198708E+00  mag=     1.0000
       N       E                     dE             d eps       ncg     rms          rms(c)
DAV:   1    -0.230392783242E+04    0.85124E-01   -0.83726E+00  4432   0.245E+00    0.849E-01
RMM:   2    -0.230403406135E+04   -0.10623E+00   -0.11296E+00  6124   0.554E-01    0.484E-01
RMM:   3    -0.230404026794E+04   -0.62066E-02   -0.11751E-01  5477   0.192E-01    0.411E-01
RMM:   4    -0.230403999804E+04    0.26990E-03   -0.12922E-02  5687   0.457E-02    0.298E-01
RMM:   5    -0.230403876708E+04    0.12310E-02   -0.32111E-03  4921   0.292E-02    0.112E-01
RMM:   6    -0.230403871069E+04    0.56389E-04   -0.90074E-04  4474   0.205E-02    0.656E-02
RMM:   7    -0.230403862864E+04    0.82052E-04   -0.12161E-04  3396   0.783E-03    0.254E-02
RMM:   8    -0.230403861144E+04    0.17194E-04   -0.41513E-05  2932   0.562E-03    0.124E-02
RMM:   9    -0.230403860595E+04    0.54904E-05   -0.20732E-05  2897   0.397E-03
   8 F= -.23244680E+04 E0= -.23244680E+04  d E =-.258134E-01  mag=     1.0000
       N       E                     dE             d eps       ncg     rms          rms(c)
DAV:   1    -0.230403545505E+04    0.31564E-02   -0.10516E+00  4464   0.857E-01    0.299E-01
RMM:   2    -0.230404908624E+04   -0.13631E-01   -0.14319E-01  6219   0.201E-01    0.184E-01
RMM:   3    -0.230404954282E+04   -0.45658E-03   -0.12991E-02  5387   0.626E-02    0.137E-01
RMM:   4    -0.230404946592E+04    0.76898E-04   -0.13910E-03  4301   0.159E-02    0.922E-02
RMM:   5    -0.230404934093E+04    0.12499E-03   -0.40836E-04  4479   0.124E-02    0.320E-02
RMM:   6    -0.230404934106E+04   -0.13232E-06   -0.68109E-05  3021   0.714E-03
   9 F= -.23244787E+04 E0= -.23244787E+04  d E =-.364992E-01  mag=     1.0000
       N       E                     dE             d eps       ncg     rms          rms(c)
DAV:   1    -0.230407308858E+04   -0.23748E-01   -0.44446E+00  4432   0.197E+00    0.619E-01
RMM:   2    -0.230410576881E+04   -0.32680E-01   -0.33919E-01  5978   0.381E-01    0.688E-01
RMM:   3    -0.230409908992E+04    0.66789E-02   -0.21718E-02  5771   0.110E-01    0.252E-01
RMM:   4    -0.230409845017E+04    0.63975E-03   -0.34304E-03  5154   0.318E-02    0.152E-01
RMM:   5    -0.230409828871E+04    0.16146E-03   -0.98227E-04  5196   0.207E-02    0.106E-01
RMM:   6    -0.230409812557E+04    0.16314E-03   -0.42113E-04  4808   0.152E-02    0.378E-02
RMM:   7    -0.230409810714E+04    0.18423E-04   -0.61373E-05  3056   0.861E-03    0.139E-02
RMM:   8    -0.230409810462E+04    0.25196E-05   -0.14299E-05  2866   0.336E-03
  10 F= -.23245276E+04 E0= -.23245276E+04  d E =-.489008E-01  mag=     1.0000
       N       E                     dE             d eps       ncg     rms          rms(c)
DAV:   1    -0.230406281770E+04    0.35289E-01   -0.12142E+01  4392   0.326E+00    0.101E+00
RMM:   2    -0.230415129972E+04   -0.88482E-01   -0.92207E-01  5954   0.631E-01    0.110E+00
RMM:   3    -0.230413483493E+04    0.16465E-01   -0.58914E-02  5806   0.183E-01    0.423E-01
RMM:   4    -0.230413296423E+04    0.18707E-02   -0.90026E-03  5285   0.523E-02    0.250E-01
RMM:   5    -0.230413252591E+04    0.43832E-03   -0.26413E-03  5423   0.335E-02    0.174E-01
RMM:   6    -0.230413208127E+04    0.44464E-03   -0.11380E-03  5128   0.245E-02    0.620E-02
RMM:   7    -0.230413203012E+04    0.51153E-04   -0.16653E-04  3864   0.130E-02    0.228E-02
RMM:   8    -0.230413202188E+04    0.82360E-05   -0.36034E-05  2966   0.462E-03
  11 F= -.23245617E+04 E0= -.23245617E+04  d E =-.830038E-01  mag=     1.0000
       N       E                     dE             d eps       ncg     rms          rms(c)
DAV:   1    -0.230414704388E+04   -0.15014E-01   -0.24404E+00  4512   0.150E+00    0.437E-01
RMM:   2    -0.230416412235E+04   -0.17078E-01   -0.18409E-01  6257   0.296E-01    0.324E-01
RMM:   3    -0.230416351617E+04    0.60618E-03   -0.14534E-02  5650   0.832E-02    0.184E-01
RMM:   4    -0.230416306601E+04    0.45016E-03   -0.18885E-03  5054   0.234E-02    0.110E-01
RMM:   5    -0.230416297371E+04    0.92305E-04   -0.59952E-04  4740   0.158E-02    0.779E-02
RMM:   6    -0.230416286477E+04    0.10894E-03   -0.25386E-04  4651   0.117E-02    0.178E-02
RMM:   7    -0.230416286078E+04    0.39909E-05   -0.32041E-05  2893   0.664E-03
  12 F= -.23245927E+04 E0= -.23245927E+04  d E =-.310316E-01  mag=     1.0000
       N       E                     dE             d eps       ncg     rms          rms(c)
DAV:   1    -0.230410857552E+04    0.54289E-01   -0.12834E+01  4456   0.345E+00    0.100E+00
RMM:   2    -0.230419546908E+04   -0.86894E-01   -0.94147E-01  6233   0.665E-01    0.721E-01
RMM:   3    -0.230419380453E+04    0.16646E-02   -0.88602E-02  5689   0.200E-01    0.409E-01
RMM:   4    -0.230419145404E+04    0.23505E-02   -0.94144E-03  5196   0.526E-02    0.236E-01
RMM:   5    -0.230419114528E+04    0.30875E-03   -0.30847E-03  5430   0.358E-02    0.188E-01
RMM:   6    -0.230419051694E+04    0.62835E-03   -0.12327E-03  5404   0.234E-02    0.454E-02
RMM:   7    -0.230419048392E+04    0.33011E-04   -0.15532E-04  3865   0.119E-02    0.230E-02
RMM:   8    -0.230419046875E+04    0.15172E-04   -0.33991E-05  3113   0.523E-03    0.109E-02
RMM:   9    -0.230419046301E+04    0.57419E-05   -0.14541E-05  2849   0.426E-03
  13 F= -.23246207E+04 E0= -.23246207E+04  d E =-.590208E-01  mag=     1.0000
       N       E                     dE             d eps       ncg     rms          rms(c)
DAV:   1    -0.230420576405E+04   -0.15295E-01   -0.34235E+00  4412   0.167E+00    0.346E-01
RMM:   2    -0.230422079617E+04   -0.15032E-01   -0.16238E-01  5962   0.278E-01    0.218E-01
RMM:   3    -0.230422124861E+04   -0.45244E-03   -0.13403E-02  5473   0.926E-02    0.169E-01
RMM:   4    -0.230422103923E+04    0.20938E-03   -0.16690E-03  5018   0.226E-02    0.116E-01
RMM:   5    -0.230422086845E+04    0.17078E-03   -0.73540E-04  4557   0.194E-02    0.314E-02
RMM:   6    -0.230422086895E+04   -0.50501E-06   -0.72555E-05  3293   0.110E-02
  14 F= -.23246513E+04 E0= -.23246513E+04  d E =-.305661E-01  mag=     1.0000
       N       E                     dE             d eps       ncg     rms          rms(c)
DAV:   1    -0.230412382276E+04    0.97046E-01   -0.30681E+01  4392   0.499E+00    0.105E+00
RMM:   2    -0.230425752972E+04   -0.13371E+00   -0.14494E+00  5888   0.819E-01    0.644E-01
RMM:   3    -0.230426355239E+04   -0.60227E-02   -0.13747E-01  5418   0.293E-01    0.524E-01
RMM:   4    -0.230426188399E+04    0.16684E-02   -0.16382E-02  5674   0.675E-02    0.366E-01
RMM:   5    -0.230426023717E+04    0.16468E-02   -0.54573E-03  4689   0.494E-02    0.117E-01
RMM:   6    -0.230426023145E+04    0.57203E-05   -0.10074E-03  4702   0.301E-02    0.575E-02
RMM:   7    -0.230426020541E+04    0.26040E-04   -0.18197E-04  3823   0.993E-03    0.349E-02
RMM:   8    -0.230426018831E+04    0.17101E-04   -0.45717E-05  2970   0.613E-03    0.182E-02
RMM:   9    -0.230426018709E+04    0.12149E-05   -0.18445E-05  2842   0.408E-03
  15 F= -.23246909E+04 E0= -.23246909E+04  d E =-.701771E-01  mag=     1.0000
       N       E                     dE             d eps       ncg     rms          rms(c)
DAV:   1    -0.230423179439E+04    0.28394E-01   -0.83127E+00  4392   0.262E+00    0.712E-01
RMM:   2    -0.230428869471E+04   -0.56900E-01   -0.60978E-01  5802   0.479E-01    0.428E-01
RMM:   3    -0.230429109399E+04   -0.23993E-02   -0.59634E-02  5322   0.199E-01    0.305E-01
RMM:   4    -0.230429031789E+04    0.77609E-03   -0.74284E-03  5323   0.428E-02    0.210E-01
RMM:   5    -0.230428967944E+04    0.63846E-03   -0.24110E-03  5224   0.349E-02    0.770E-02
RMM:   6    -0.230428961331E+04    0.66124E-04   -0.36854E-04  5033   0.162E-02    0.294E-02
RMM:   7    -0.230428959720E+04    0.16117E-04   -0.60020E-05  3094   0.556E-03    0.200E-02
RMM:   8    -0.230428958441E+04    0.12784E-04   -0.22027E-05  2886   0.462E-03    0.127E-02
RMM:   9    -0.230428957831E+04    0.60990E-05   -0.14872E-05  2834   0.406E-03
  16 F= -.23247202E+04 E0= -.23247202E+04  d E =-.293274E-01  mag=     1.0000
       N       E                     dE             d eps       ncg     rms          rms(c)
DAV:   1    -0.230428955890E+04    0.25514E-04   -0.64794E-03  5320   0.740E-02    0.198E-02
RMM:   2    -0.230428960515E+04   -0.46253E-04   -0.50572E-04  5118   0.154E-02    0.125E-02
RMM:   3    -0.230428960654E+04   -0.13866E-05   -0.46108E-05  2841   0.619E-03
  17 F= -.23247202E+04 E0= -.23247202E+04  d E =-.293529E-01  mag=     1.0000
       N       E                     dE             d eps       ncg     rms          rms(c)
DAV:   1    -0.230427132688E+04    0.18278E-01   -0.27456E+00  4432   0.156E+00    0.451E-01
RMM:   2    -0.230430638128E+04   -0.35054E-01   -0.36572E-01  6005   0.310E-01    0.358E-01
RMM:   3    -0.230430769418E+04   -0.13129E-02   -0.33728E-02  5429   0.117E-01    0.193E-01
RMM:   4    -0.230430747093E+04    0.22325E-03   -0.39448E-03  4860   0.231E-02    0.120E-01
RMM:   5    -0.230430727763E+04    0.19330E-03   -0.54203E-04  4622   0.165E-02    0.638E-02
RMM:   6    -0.230430724737E+04    0.30253E-04   -0.32033E-04  4203   0.135E-02    0.308E-02
RMM:   7    -0.230430723100E+04    0.16376E-04   -0.35772E-05  2884   0.617E-03    0.127E-02
RMM:   8    -0.230430722782E+04    0.31763E-05   -0.89174E-06  2838   0.309E-03
  18 F= -.23247378E+04 E0= -.23247378E+04  d E =-.175396E-01  mag=     1.0000
       N       E                     dE             d eps       ncg     rms          rms(c)
DAV:   1    -0.230400106791E+04    0.30616E+00   -0.24634E+01  4424   0.469E+00    0.139E+00
RMM:   2    -0.230432341899E+04   -0.32235E+00   -0.33594E+00  6163   0.943E-01    0.114E+00
RMM:   3    -0.230433452380E+04   -0.11105E-01   -0.33594E-01  5747   0.320E-01    0.607E-01
RMM:   4    -0.230433267940E+04    0.18444E-02   -0.37276E-02  5016   0.680E-02    0.371E-01
RMM:   5    -0.230433132036E+04    0.13590E-02   -0.41075E-03  5153   0.406E-02    0.272E-01
RMM:   6    -0.230433032863E+04    0.99173E-03   -0.45597E-03  5008   0.442E-02    0.908E-02
RMM:   7    -0.230433023499E+04    0.93642E-04   -0.45679E-04  4811   0.207E-02    0.441E-02
RMM:   8    -0.230433019490E+04    0.40085E-04   -0.91236E-05  3099   0.671E-03    0.233E-02
RMM:   9    -0.230433018994E+04    0.49686E-05   -0.48020E-05  2901   0.501E-03
  19 F= -.23247602E+04 E0= -.23247602E+04  d E =-.399259E-01  mag=     1.0000
       N       E                     dE             d eps       ncg     rms          rms(c)
DAV:   1    -0.230432978733E+04    0.40758E-03   -0.61440E-01  4576   0.720E-01    0.222E-01
RMM:   2    -0.230433897403E+04   -0.91867E-02   -0.93058E-02  6202   0.149E-01    0.232E-01
RMM:   3    -0.230433890708E+04    0.66950E-04   -0.86812E-03  5178   0.518E-02    0.858E-02
RMM:   4    -0.230433888364E+04    0.23438E-04   -0.10125E-03  3432   0.104E-02    0.560E-02
RMM:   5    -0.230433884110E+04    0.42542E-04   -0.11945E-04  3640   0.801E-03    0.351E-02
RMM:   6    -0.230433883134E+04    0.97532E-05   -0.62328E-05  2890   0.720E-03
  20 F= -.23247687E+04 E0= -.23247687E+04  d E =-.850826E-02  mag=     1.0000
       N       E                     dE             d eps       ncg     rms          rms(c)
DAV:   1    -0.230428068187E+04    0.58159E-01   -0.55101E+00  4392   0.216E+00    0.671E-01
RMM:   2    -0.230436391805E+04   -0.83236E-01   -0.84287E-01  6190   0.453E-01    0.713E-01
RMM:   3    -0.230436308762E+04    0.83043E-03   -0.80649E-02  5608   0.147E-01    0.262E-01
RMM:   4    -0.230436300724E+04    0.80384E-04   -0.95797E-03  4835   0.306E-02    0.171E-01
RMM:   5    -0.230436276807E+04    0.23917E-03   -0.98992E-04  4930   0.197E-02    0.142E-01
RMM:   6    -0.230436252103E+04    0.24703E-03   -0.88517E-04  4985   0.193E-02    0.534E-02
RMM:   7    -0.230436248569E+04    0.35339E-04   -0.16722E-04  3101   0.927E-03    0.245E-02
RMM:   8    -0.230436247722E+04    0.84713E-05   -0.17197E-05  2840   0.396E-03
  21 F= -.23247918E+04 E0= -.23247918E+04  d E =-.316721E-01  mag=     1.0000
       N       E                     dE             d eps       ncg     rms          rms(c)
DAV:   1    -0.230406749176E+04    0.29499E+00   -0.22010E+01  4392   0.433E+00    0.136E+00
RMM:   2    -0.230440729887E+04   -0.33981E+00   -0.34403E+00  6285   0.923E-01    0.146E+00
RMM:   3    -0.230440319002E+04    0.41088E-02   -0.34138E-01  5736   0.296E-01    0.556E-01
RMM:   4    -0.230440280208E+04    0.38794E-03   -0.40104E-02  5202   0.646E-02    0.362E-01
RMM:   5    -0.230440173431E+04    0.10678E-02   -0.37027E-03  5420   0.343E-02    0.306E-01
RMM:   6    -0.230440047159E+04    0.12627E-02   -0.42892E-03  4851   0.412E-02    0.112E-01
RMM:   7    -0.230440035439E+04    0.11719E-03   -0.88479E-04  4351   0.244E-02    0.513E-02
RMM:   8    -0.230440031225E+04    0.42145E-04   -0.81193E-05  3072   0.556E-03    0.261E-02
RMM:   9    -0.230440030472E+04    0.75318E-05   -0.58954E-05  2879   0.490E-03
  22 F= -.23248283E+04 E0= -.23248283E+04  d E =-.681632E-01  mag=     1.0000
       N       E                     dE             d eps       ncg     rms          rms(c)
DAV:   1    -0.230305927920E+04    0.13410E+01   -0.87637E+01  4392   0.868E+00    0.279E+00
RMM:   2    -0.230453520085E+04   -0.14759E+01   -0.14366E+01  6341   0.194E+00    0.552E+00
RMM:   3    -0.230443783795E+04    0.97363E-01   -0.16255E+00  5803   0.630E-01    0.162E+00
RMM:   4    -0.230445481676E+04   -0.16979E-01   -0.19901E-01  5498   0.154E-01    0.940E-01
RMM:   5    -0.230444468556E+04    0.10131E-01   -0.17564E-02  5603   0.725E-02    0.709E-01
RMM:   6    -0.230444110061E+04    0.35849E-02   -0.12899E-02  4756   0.694E-02    0.376E-01
RMM:   7    -0.230443984111E+04    0.12595E-02   -0.57388E-03  4621   0.598E-02    0.191E-01
RMM:   8    -0.230443992597E+04   -0.84858E-04   -0.14324E-03  4663   0.202E-02    0.689E-02
RMM:   9    -0.230443990586E+04    0.20111E-04   -0.12897E-04  3671   0.127E-02    0.391E-02
RMM:  10    -0.230443991899E+04   -0.13128E-04   -0.92707E-05  2952   0.632E-03    0.186E-02
RMM:  11    -0.230443992752E+04   -0.85329E-05   -0.18985E-05  2867   0.388E-03
  23 F= -.23248638E+04 E0= -.23248638E+04  d E =-.103656E+00  mag=     1.0000
       N       E                     dE             d eps       ncg     rms          rms(c)
DAV:   1    -0.230432657652E+04    0.11334E+00   -0.93667E+00  4392   0.278E+00    0.102E+00
RMM:   2    -0.230448504119E+04   -0.15846E+00   -0.15998E+00  6284   0.629E-01    0.112E+00
RMM:   3    -0.230447960181E+04    0.54394E-02   -0.16260E-01  5850   0.201E-01    0.384E-01
RMM:   4    -0.230447908663E+04    0.51518E-03   -0.18491E-02  4667   0.455E-02    0.236E-01
RMM:   5    -0.230447863719E+04    0.44944E-03   -0.21609E-03  5318   0.315E-02    0.205E-01
RMM:   6    -0.230447815090E+04    0.48629E-03   -0.16055E-03  5450   0.259E-02    0.783E-02
RMM:   7    -0.230447805002E+04    0.10088E-03   -0.31424E-04  3725   0.117E-02    0.352E-02
RMM:   8    -0.230447802820E+04    0.21822E-04   -0.43982E-05  2884   0.527E-03    0.177E-02
RMM:   9    -0.230447801871E+04    0.94830E-05   -0.43172E-05  2925   0.478E-03
  24 F= -.23248998E+04 E0= -.23248998E+04  d E =-.359835E-01  mag=     1.0000
       N       E                     dE             d eps       ncg     rms          rms(c)
DAV:   1    -0.230434753680E+04    0.13049E+00   -0.91104E+00  4392   0.273E+00    0.100E+00
RMM:   2    -0.230450121978E+04   -0.15368E+00   -0.15531E+00  6294   0.618E-01    0.110E+00
RMM:   3    -0.230449622946E+04    0.49903E-02   -0.15905E-01  5901   0.196E-01    0.379E-01
RMM:   4    -0.230449570429E+04    0.52517E-03   -0.17929E-02  4633   0.446E-02    0.232E-01
RMM:   5    -0.230449521345E+04    0.49084E-03   -0.21093E-03  5292   0.316E-02    0.197E-01
RMM:   6    -0.230449478310E+04    0.43034E-03   -0.15324E-03  5363   0.255E-02    0.758E-02
RMM:   7    -0.230449467892E+04    0.10419E-03   -0.28249E-04  3716   0.111E-02    0.351E-02
RMM:   8    -0.230449465655E+04    0.22369E-04   -0.42340E-05  2889   0.538E-03    0.176E-02
RMM:   9    -0.230449464543E+04    0.11119E-04   -0.44138E-05  2950   0.485E-03    0.721E-03
RMM:  10    -0.230449464462E+04    0.81070E-06   -0.89335E-06  2836   0.376E-03
  25 F= -.23249141E+04 E0= -.23249141E+04  d E =-.503143E-01  mag=     1.0000
       N       E                     dE             d eps       ncg     rms          rms(c)
DAV:   1    -0.230442238146E+04    0.72264E-01   -0.56052E+00  4432   0.209E+00    0.768E-01
RMM:   2    -0.230452366532E+04   -0.10128E+00   -0.10269E+00  6301   0.475E-01    0.807E-01
RMM:   3    -0.230452333779E+04    0.32753E-03   -0.11080E-01  5912   0.162E-01    0.299E-01
RMM:   4    -0.230452321348E+04    0.12431E-03   -0.12008E-02  4716   0.343E-02    0.187E-01
RMM:   5    -0.230452300852E+04    0.20496E-03   -0.13298E-03  5198   0.217E-02    0.179E-01
RMM:   6    -0.230452261665E+04    0.39187E-03   -0.11124E-03  5190   0.206E-02    0.669E-02
RMM:   7    -0.230452257111E+04    0.45547E-04   -0.29013E-04  3155   0.104E-02    0.344E-02
RMM:   8    -0.230452255565E+04    0.15455E-04   -0.27419E-05  2856   0.463E-03    0.177E-02
RMM:   9    -0.230452254955E+04    0.61010E-05   -0.29086E-05  2853   0.364E-03
  26 F= -.23249400E+04 E0= -.23249400E+04  d E =-.258878E-01  mag=     1.0000
       N       E                     dE             d eps       ncg     rms          rms(c)
DAV:   1    -0.230434187593E+04    0.18068E+00   -0.11264E+01  4392   0.295E+00    0.109E+00
RMM:   2    -0.230454397076E+04   -0.20209E+00   -0.20436E+00  6319   0.678E-01    0.118E+00
RMM:   3    -0.230454342683E+04    0.54392E-03   -0.23022E-01  5991   0.227E-01    0.447E-01
RMM:   4    -0.230454308020E+04    0.34663E-03   -0.24612E-02  5036   0.500E-02    0.279E-01
RMM:   5    -0.230454260480E+04    0.47540E-03   -0.26877E-03  5418   0.283E-02    0.261E-01
RMM:   6    -0.230454169910E+04    0.90570E-03   -0.24634E-03  5127   0.308E-02    0.967E-02
RMM:   7    -0.230454162383E+04    0.75273E-04   -0.64896E-04  4229   0.174E-02    0.466E-02
RMM:   8    -0.230454159295E+04    0.30883E-04   -0.64315E-05  2922   0.477E-03    0.244E-02
RMM:   9    -0.230454158076E+04    0.12191E-04   -0.50837E-05  2888   0.477E-03    0.686E-03
RMM:  10    -0.230454158104E+04   -0.28807E-06   -0.87918E-06  2834   0.313E-03
  27 F= -.23249560E+04 E0= -.23249560E+04  d E =-.418828E-01  mag=     1.0000
       N       E                     dE             d eps       ncg     rms          rms(c)
DAV:   1    -0.230448736441E+04    0.54216E-01   -0.51179E+00  4400   0.195E+00    0.664E-01
RMM:   2    -0.230456809593E+04   -0.80732E-01   -0.82494E-01  6291   0.422E-01    0.708E-01
RMM:   3    -0.230456864852E+04   -0.55259E-03   -0.88409E-02  5977   0.139E-01    0.266E-01
RMM:   4    -0.230456852780E+04    0.12072E-03   -0.92758E-03  4691   0.290E-02    0.170E-01
RMM:   5    -0.230456825331E+04    0.27449E-03   -0.98248E-04  4850   0.201E-02    0.126E-01
RMM:   6    -0.230456811401E+04    0.13929E-03   -0.71452E-04  4678   0.173E-02    0.508E-02
RMM:   7    -0.230456807528E+04    0.38731E-04   -0.12805E-04  2995   0.762E-03    0.257E-02
RMM:   8    -0.230456806607E+04    0.92108E-05   -0.18869E-05  2831   0.433E-03
  28 F= -.23249808E+04 E0= -.23249808E+04  d E =-.248080E-01  mag=     1.0000
       N       E                     dE             d eps       ncg     rms          rms(c)
DAV:   1    -0.230385181721E+04    0.71626E+00   -0.45861E+01  4392   0.588E+00    0.204E+00
RMM:   2    -0.230461718383E+04   -0.76537E+00   -0.78019E+00  6355   0.135E+00    0.238E+00
RMM:   3    -0.230461555284E+04    0.16310E-02   -0.87173E-01  6079   0.435E-01    0.856E-01
RMM:   4    -0.230461455546E+04    0.99738E-03   -0.89837E-02  5231   0.929E-02    0.549E-01
RMM:   5    -0.230461277432E+04    0.17811E-02   -0.89283E-03  5434   0.499E-02    0.486E-01
RMM:   6    -0.230460988572E+04    0.28886E-02   -0.89792E-03  5154   0.564E-02    0.197E-01
RMM:   7    -0.230460956500E+04    0.32073E-03   -0.23536E-03  4750   0.345E-02    0.959E-02
RMM:   8    -0.230460945211E+04    0.11289E-03   -0.24763E-04  3688   0.842E-03    0.469E-02
RMM:   9    -0.230460941786E+04    0.34247E-04   -0.12921E-04  3164   0.803E-03    0.179E-02
RMM:  10    -0.230460942081E+04   -0.29483E-05   -0.42213E-05  2906   0.508E-03
  29 F= -.23250168E+04 E0= -.23250168E+04  d E =-.607696E-01  mag=     1.0000
       N       E                     dE             d eps       ncg     rms          rms(c)
DAV:   1    -0.230452917774E+04    0.80240E-01   -0.66709E+00  4480   0.225E+00    0.767E-01
RMM:   2    -0.230463593910E+04   -0.10676E+00   -0.11100E+00  6311   0.501E-01    0.731E-01
RMM:   3    -0.230463993548E+04   -0.39964E-02   -0.12635E-01  5981   0.168E-01    0.332E-01
RMM:   4    -0.230463962571E+04    0.30977E-03   -0.12757E-02  4874   0.361E-02    0.204E-01
RMM:   5    -0.230463929100E+04    0.33470E-03   -0.13221E-03  5146   0.222E-02    0.161E-01
RMM:   6    -0.230463897141E+04    0.31960E-03   -0.12437E-03  5362   0.217E-02    0.545E-02
RMM:   7    -0.230463894297E+04    0.28433E-04   -0.16891E-04  3314   0.967E-03    0.294E-02
RMM:   8    -0.230463893144E+04    0.11529E-04   -0.32242E-05  2834   0.464E-03    0.145E-02
RMM:   9    -0.230463893001E+04    0.14314E-05   -0.19416E-05  2838   0.309E-03
  30 F= -.23250440E+04 E0= -.23250440E+04  d E =-.272511E-01  mag=     1.0000
       N       E                     dE             d eps       ncg     rms          rms(c)
DAV:   1    -0.230406391887E+04    0.57501E+00   -0.35937E+01  4384   0.525E+00    0.181E+00
RMM:   2    -0.230466366175E+04   -0.59974E+00   -0.62191E+00  6345   0.121E+00    0.182E+00
RMM:   3    -0.230468480844E+04   -0.21147E-01   -0.73761E-01  6023   0.409E-01    0.830E-01
RMM:   4    -0.230468290621E+04    0.19022E-02   -0.76641E-02  5521   0.912E-02    0.520E-01
RMM:   5    -0.230468068174E+04    0.22245E-02   -0.70389E-03  5494   0.440E-02    0.430E-01
RMM:   6    -0.230467823981E+04    0.24419E-02   -0.91350E-03  5217   0.562E-02    0.122E-01
RMM:   7    -0.230467816305E+04    0.76753E-04   -0.11877E-03  4741   0.274E-02    0.768E-02
RMM:   8    -0.230467807755E+04    0.85503E-04   -0.24941E-04  3599   0.930E-03    0.351E-02
RMM:   9    -0.230467807786E+04   -0.30735E-06   -0.10696E-04  3118   0.669E-03    0.121E-02
RMM:  10    -0.230467808427E+04   -0.64101E-05   -0.18194E-05  2857   0.459E-03
  31 F= -.23250777E+04 E0= -.23250777E+04  d E =-.609129E-01  mag=     1.0000
       N       E                     dE             d eps       ncg     rms          rms(c)
DAV:   1    -0.230462384308E+04    0.54235E-01   -0.35639E+00  4544   0.165E+00    0.553E-01
RMM:   2    -0.230468078884E+04   -0.56946E-01   -0.58835E-01  6310   0.364E-01    0.563E-01
RMM:   3    -0.230468261994E+04   -0.18311E-02   -0.65354E-02  5978   0.124E-01    0.245E-01
RMM:   4    -0.230468243761E+04    0.18233E-03   -0.66768E-03  4798   0.265E-02    0.153E-01
RMM:   5    -0.230468223335E+04    0.20427E-03   -0.77019E-04  4893   0.172E-02    0.118E-01
RMM:   6    -0.230468207062E+04    0.16273E-03   -0.65122E-04  4892   0.160E-02    0.410E-02
RMM:   7    -0.230468205277E+04    0.17848E-04   -0.85925E-05  2962   0.734E-03    0.223E-02
RMM:   8    -0.230468204714E+04    0.56310E-05   -0.18467E-05  2828   0.418E-03
  32 F= -.23250799E+04 E0= -.23250799E+04  d E =-.630871E-01  mag=     1.0000
       N       E                     dE             d eps       ncg     rms          rms(c)
DAV:   1    -0.230450575237E+04    0.17630E+00   -0.11569E+01  4392   0.282E+00    0.989E-01
RMM:   2    -0.230470682311E+04   -0.20107E+00   -0.20716E+00  6374   0.655E-01    0.109E+00
RMM:   3    -0.230471340388E+04   -0.65808E-02   -0.24037E-01  6150   0.224E-01    0.443E-01
RMM:   4    -0.230471333071E+04    0.73164E-04   -0.24113E-02  5429   0.471E-02    0.294E-01
RMM:   5    -0.230471279491E+04    0.53581E-03   -0.23894E-03  5196   0.254E-02    0.245E-01
RMM:   6    -0.230471207420E+04    0.72071E-03   -0.24637E-03  5508   0.279E-02    0.719E-02
RMM:   7    -0.230471205622E+04    0.17981E-04   -0.36870E-04  3603   0.122E-02    0.456E-02
RMM:   8    -0.230471203089E+04    0.25335E-04   -0.65755E-05  2853   0.532E-03    0.199E-02
RMM:   9    -0.230471202978E+04    0.11031E-05   -0.30761E-05  2856   0.332E-03
  33 F= -.23251067E+04 E0= -.23251067E+04  d E =-.268309E-01  mag=     1.0000
       N       E                     dE             d eps       ncg     rms          rms(c)
DAV:   1    -0.230279768738E+04    0.19143E+01   -0.10375E+02  4392   0.850E+00    0.311E+00
RMM:   2    -0.230508719983E+04   -0.22895E+01   -0.20803E+01  6445   0.216E+00    0.640E+00
RMM:   3    -0.230478847461E+04    0.29873E+00   -0.23689E+00  6066   0.702E-01    0.203E+00
RMM:   4    -0.230480549413E+04   -0.17020E-01   -0.27513E-01  5681   0.167E-01    0.117E+00
RMM:   5    -0.230479546141E+04    0.10033E-01   -0.24962E-02  5643   0.740E-02    0.107E+00
RMM:   6    -0.230478827088E+04    0.71905E-02   -0.23939E-02  5091   0.800E-02    0.561E-01
RMM:   7    -0.230478631535E+04    0.19555E-02   -0.12025E-02  4883   0.679E-02    0.297E-01
RMM:   8    -0.230478681610E+04   -0.50075E-03   -0.22902E-03  5073   0.239E-02    0.166E-01
RMM:   9    -0.230478670157E+04    0.11453E-03   -0.58268E-04  3974   0.166E-02    0.118E-01
RMM:  10    -0.230478672004E+04   -0.18469E-04   -0.29589E-04  3256   0.816E-03    0.382E-02
RMM:  11    -0.230478677787E+04   -0.57838E-04   -0.82848E-05  3029   0.575E-03    0.343E-02
RMM:  12    -0.230478678979E+04   -0.11913E-04   -0.28942E-05  2857   0.481E-03    0.645E-03
RMM:  13    -0.230478679984E+04   -0.10048E-04   -0.10796E-05  2837   0.309E-03    0.551E-03
RMM:  14    -0.230478680607E+04   -0.62304E-05   -0.48296E-06  2780   0.260E-03
  34 F= -.23251711E+04 E0= -.23251711E+04  d E =-.911835E-01  mag=     0.9997
       N       E                     dE             d eps       ncg     rms          rms(c)
DAV:   1    -0.229579806101E+04    0.89887E+01   -0.41678E+02  4376   0.173E+01    0.740E+00
RMM:   2    -0.230982407004E+04   -0.14026E+02   -0.11444E+02  6505   0.505E+00    0.133E+01
RMM:   3    -0.230534226489E+04    0.44818E+01   -0.97469E+00  5956   0.158E+00    0.619E+00
RMM:   4    -0.230506990844E+04    0.27236E+00   -0.13012E+00  6479   0.427E-01    0.391E+00
RMM:   5    -0.230502758251E+04    0.42326E-01   -0.13495E-01  5119   0.147E-01    0.313E+00
RMM:   6    -0.230489588150E+04    0.13170E+00   -0.24712E-01  5516   0.228E-01    0.102E+00
RMM:   7    -0.230489386487E+04    0.20166E-02   -0.41347E-02  5101   0.121E-01    0.542E-01
RMM:   8    -0.230489541760E+04   -0.15527E-02   -0.11406E-02  4667   0.631E-02    0.245E-01
RMM:   9    -0.230489617738E+04   -0.75978E-03   -0.23537E-03  4987   0.366E-02    0.133E-01
RMM:  10    -0.230489632768E+04   -0.15030E-03   -0.88771E-04  4671   0.160E-02    0.645E-02
RMM:  11    -0.230489642798E+04   -0.10030E-03   -0.16994E-04  3674   0.939E-03    0.339E-02
RMM:  12    -0.230489651617E+04   -0.88191E-04   -0.66067E-05  3147   0.585E-03    0.168E-02
RMM:  13    -0.230489658921E+04   -0.73033E-04   -0.31387E-05  2912   0.481E-03    0.133E-02
RMM:  14    -0.230489662385E+04   -0.34646E-04   -0.16850E-05  2841   0.398E-03    0.508E-03
RMM:  15    -0.230489664632E+04   -0.22464E-04   -0.99745E-06  2805   0.329E-03    0.553E-03
RMM:  16    -0.230489665661E+04   -0.10294E-04   -0.67430E-06  2775   0.285E-03    0.265E-03
RMM:  17    -0.230489666057E+04   -0.39610E-05   -0.36786E-06  2585   0.236E-03
  35 F= -.23252588E+04 E0= -.23252588E+04  d E =-.178895E+00  mag=     1.0000
       N       E                     dE             d eps       ncg     rms          rms(c)
DAV:   1    -0.230489012681E+04    0.65298E-02   -0.86575E-01  4728   0.762E-01    0.282E-01
RMM:   2    -0.230490691092E+04   -0.16784E-01   -0.16299E-01  6443   0.186E-01    0.429E-01
RMM:   3    -0.230490629608E+04    0.61484E-03   -0.18483E-02  5799   0.640E-02    0.155E-01
RMM:   4    -0.230490627343E+04    0.22656E-04   -0.19125E-03  3592   0.132E-02    0.125E-01
RMM:   5    -0.230490616044E+04    0.11299E-03   -0.45742E-04  4289   0.114E-02    0.761E-02
RMM:   6    -0.230490610195E+04    0.58492E-04   -0.22026E-04  3354   0.906E-03    0.291E-02
RMM:   7    -0.230490609673E+04    0.52163E-05   -0.28122E-05  2843   0.440E-03
  36 F= -.23252673E+04 E0= -.23252673E+04  d E =-.856710E-02  mag=     1.0000
       N       E                     dE             d eps       ncg     rms          rms(c)
DAV:   1    -0.230478684902E+04    0.11925E+00   -0.77928E+00  4408   0.229E+00    0.862E-01
RMM:   2    -0.230494055416E+04   -0.15371E+00   -0.15058E+00  6485   0.569E-01    0.117E+00
RMM:   3    -0.230493364701E+04    0.69071E-02   -0.16678E-01  6267   0.189E-01    0.439E-01
RMM:   4    -0.230493336143E+04    0.28559E-03   -0.17626E-02  5365   0.406E-02    0.347E-01
RMM:   5    -0.230493271461E+04    0.64682E-03   -0.28484E-03  5344   0.250E-02    0.273E-01
RMM:   6    -0.230493181188E+04    0.90273E-03   -0.31829E-03  5608   0.287E-02    0.796E-02
RMM:   7    -0.230493180505E+04    0.68314E-05   -0.28620E-04  3215   0.104E-02    0.618E-02
RMM:   8    -0.230493178550E+04    0.19551E-04   -0.14126E-04  2985   0.669E-03    0.225E-02
RMM:   9    -0.230493179062E+04   -0.51252E-05   -0.17875E-05  2853   0.348E-03
  37 F= -.23252905E+04 E0= -.23252905E+04  d E =-.317124E-01  mag=     1.0000
       N       E                     dE             d eps       ncg     rms          rms(c)
DAV:   1    -0.230436845428E+04    0.56333E+00   -0.31142E+01  4392   0.459E+00    0.177E+00
RMM:   2    -0.230500535559E+04   -0.63690E+00   -0.63052E+00  6506   0.118E+00    0.219E+00
RMM:   3    -0.230496813183E+04    0.37224E-01   -0.68568E-01  6213   0.381E-01    0.832E-01
RMM:   4    -0.230496548258E+04    0.26493E-02   -0.71040E-02  5790   0.827E-02    0.597E-01
RMM:   5    -0.230496301657E+04    0.24660E-02   -0.79495E-03  5634   0.404E-02    0.498E-01
RMM:   6    -0.230495987540E+04    0.31412E-02   -0.13072E-02  5724   0.565E-02    0.150E-01
RMM:   7    -0.230495981189E+04    0.63512E-04   -0.11342E-03  4380   0.213E-02    0.104E-01
RMM:   8    -0.230495975019E+04    0.61699E-04   -0.44522E-04  3638   0.109E-02    0.391E-02
RMM:   9    -0.230495978721E+04   -0.37027E-04   -0.74579E-05  2931   0.519E-03    0.171E-02
RMM:  10    -0.230495979970E+04   -0.12481E-04   -0.14711E-05  2812   0.372E-03    0.108E-02
RMM:  11    -0.230495980806E+04   -0.83652E-05   -0.12100E-05  2792   0.299E-03
  38 F= -.23253136E+04 E0= -.23253136E+04  d E =-.548615E-01  mag=     1.0000
       N       E                     dE             d eps       ncg     rms          rms(c)
DAV:   1    -0.230498163761E+04   -0.21838E-01   -0.48994E-01  4592   0.554E-01    0.230E-01
RMM:   2    -0.230499178906E+04   -0.10151E-01   -0.98757E-02  6485   0.144E-01    0.297E-01
RMM:   3    -0.230499101279E+04    0.77627E-03   -0.10850E-02  5380   0.491E-02    0.947E-02
RMM:   4    -0.230499096977E+04    0.43023E-04   -0.11004E-03  3130   0.994E-03    0.668E-02
RMM:   5    -0.230499090016E+04    0.69606E-04   -0.22675E-04  3949   0.847E-03    0.294E-02
RMM:   6    -0.230499089544E+04    0.47182E-05   -0.48426E-05  2876   0.625E-03
  39 F= -.23253442E+04 E0= -.23253442E+04  d E =-.305406E-01  mag=     1.0000
       N       E                     dE             d eps       ncg     rms          rms(c)
DAV:   1    -0.230499291601E+04   -0.20159E-02   -0.44032E+00  4408   0.166E+00    0.703E-01
RMM:   2    -0.230508597271E+04   -0.93057E-01   -0.90918E-01  6491   0.438E-01    0.882E-01
RMM:   3    -0.230507766163E+04    0.83111E-02   -0.96796E-02  6161   0.143E-01    0.289E-01
RMM:   4    -0.230507723846E+04    0.42317E-03   -0.10300E-02  5051   0.296E-02    0.200E-01
RMM:   5    -0.230507686606E+04    0.37240E-03   -0.15183E-03  5156   0.194E-02    0.154E-01
RMM:   6    -0.230507655028E+04    0.31578E-03   -0.10790E-03  5398   0.179E-02    0.517E-02
RMM:   7    -0.230507651749E+04    0.32791E-04   -0.14551E-04  2937   0.746E-03    0.283E-02
RMM:   8    -0.230507650923E+04    0.82654E-05   -0.35546E-05  2845   0.449E-03
  40 F= -.23254282E+04 E0= -.23254282E+04  d E =-.114543E+00  mag=     1.0000
       N       E                     dE             d eps       ncg     rms          rms(c)
DAV:   1    -0.230486868374E+04    0.20783E+00   -0.17639E+01  4392   0.334E+00    0.141E+00
RMM:   2    -0.230524686833E+04   -0.37818E+00   -0.37263E+00  6509   0.904E-01    0.171E+00
RMM:   3    -0.230521233986E+04    0.34528E-01   -0.38882E-01  6132   0.291E-01    0.599E-01
RMM:   4    -0.230521048480E+04    0.18551E-02   -0.42857E-02  5862   0.637E-02    0.405E-01
RMM:   5    -0.230520907397E+04    0.14108E-02   -0.44799E-03  5684   0.309E-02    0.335E-01
RMM:   6    -0.230520750657E+04    0.15674E-02   -0.60988E-03  5731   0.391E-02    0.106E-01
RMM:   7    -0.230520736410E+04    0.14247E-03   -0.76367E-04  4094   0.177E-02    0.561E-02
RMM:   8    -0.230520732054E+04    0.43566E-04   -0.16502E-04  3158   0.705E-03    0.205E-02
RMM:   9    -0.230520732407E+04   -0.35267E-05   -0.36902E-05  2865   0.443E-03
  41 F= -.23255559E+04 E0= -.23255559E+04  d E =-.242271E+00  mag=     1.0000
       N       E                     dE             d eps       ncg     rms          rms(c)
DAV:   1    -0.230382355332E+04    0.13838E+01   -0.70623E+01  4408   0.675E+00    0.284E+00
RMM:   2    -0.230544775900E+04   -0.16242E+01   -0.16024E+01  6531   0.195E+00    0.349E+00
RMM:   3    -0.230527086397E+04    0.17690E+00   -0.15969E+00  5976   0.634E-01    0.133E+00
RMM:   4    -0.230525778475E+04    0.13079E-01   -0.17003E-01  6325   0.139E-01    0.858E-01
RMM:   5    -0.230525077856E+04    0.70062E-02   -0.15684E-02  5732   0.562E-02    0.669E-01
RMM:   6    -0.230524460885E+04    0.61697E-02   -0.26132E-02  5541   0.825E-02    0.235E-01
RMM:   7    -0.230524387425E+04    0.73460E-03   -0.31898E-03  5014   0.410E-02    0.105E-01
RMM:   8    -0.230524373700E+04    0.13725E-03   -0.71098E-04  4669   0.136E-02    0.456E-02
RMM:   9    -0.230524376531E+04   -0.28305E-04   -0.14310E-04  3202   0.820E-03    0.221E-02
RMM:  10    -0.230524379969E+04   -0.34385E-04   -0.42057E-05  2905   0.503E-03    0.137E-02
RMM:  11    -0.230524381453E+04   -0.14839E-04   -0.16956E-05  2846   0.435E-03    0.694E-03
RMM:  12    -0.230524382354E+04   -0.90142E-05   -0.82687E-06  2817   0.318E-03
  42 F= -.23255868E+04 E0= -.23255868E+04  d E =-.273156E+00  mag=     1.0000
       N       E                     dE             d eps       ncg     rms          rms(c)
DAV:   1    -0.230498236345E+04    0.26145E+00   -0.14447E+01  4392   0.309E+00    0.121E+00
RMM:   2    -0.230527575835E+04   -0.29339E+00   -0.30079E+00  6504   0.821E-01    0.129E+00
RMM:   3    -0.230527647710E+04   -0.71875E-03   -0.36170E-01  6140   0.284E-01    0.613E-01
RMM:   4    -0.230527368280E+04    0.27943E-02   -0.32085E-02  5874   0.564E-02    0.368E-01
RMM:   5    -0.230527253895E+04    0.11438E-02   -0.35872E-03  5871   0.284E-02    0.296E-01
RMM:   6    -0.230527114386E+04    0.13951E-02   -0.42344E-03  5308   0.343E-02    0.701E-02
RMM:   7    -0.230527112924E+04    0.14620E-04   -0.45895E-04  4398   0.149E-02    0.382E-02
RMM:   8    -0.230527109316E+04    0.36080E-04   -0.82380E-05  3062   0.584E-03    0.192E-02
RMM:   9    -0.230527108946E+04    0.36952E-05   -0.36006E-05  2942   0.404E-03
  43 F= -.23256165E+04 E0= -.23256165E+04  d E =-.302869E+00  mag=     1.0000
       N       E                     dE             d eps       ncg     rms          rms(c)
DAV:   1    -0.230530929667E+04   -0.38204E-01   -0.59047E-01  4496   0.747E-01    0.252E-01
RMM:   2    -0.230531708051E+04   -0.77838E-02   -0.82282E-02  6291   0.169E-01    0.164E-01
RMM:   3    -0.230531744919E+04   -0.36868E-03   -0.91695E-03  5666   0.588E-02    0.100E-01
RMM:   4    -0.230531736249E+04    0.86705E-04   -0.89916E-04  4388   0.134E-02    0.622E-02
RMM:   5    -0.230531730944E+04    0.53044E-04   -0.19118E-04  4048   0.106E-02    0.293E-02
RMM:   6    -0.230531731026E+04   -0.81804E-06   -0.59476E-05  3060   0.628E-03
  44 F= -.23256631E+04 E0= -.23256631E+04  d E =-.466031E-01  mag=     1.0000
       N       E                     dE             d eps       ncg     rms          rms(c)
DAV:   1    -0.230534902649E+04   -0.31717E-01   -0.53077E+00  4392   0.224E+00    0.759E-01
RMM:   2    -0.230542050989E+04   -0.71483E-01   -0.75420E-01  6350   0.517E-01    0.491E-01
RMM:   3    -0.230542324580E+04   -0.27359E-02   -0.79091E-02  6064   0.164E-01    0.294E-01
RMM:   4    -0.230542260437E+04    0.64142E-03   -0.83760E-03  5343   0.391E-02    0.203E-01
RMM:   5    -0.230542227869E+04    0.32569E-03   -0.19724E-03  5421   0.279E-02    0.138E-01
RMM:   6    -0.230542198223E+04    0.29646E-03   -0.71040E-04  5292   0.171E-02    0.477E-02
RMM:   7    -0.230542195727E+04    0.24955E-04   -0.94061E-05  3157   0.893E-03    0.202E-02
RMM:   8    -0.230542195630E+04    0.97025E-06   -0.19912E-05  2866   0.453E-03
  45 F= -.23257689E+04 E0= -.23257689E+04  d E =-.152407E+00  mag=     1.0000
       N       E                     dE             d eps       ncg     rms          rms(c)
DAV:   1    -0.230516626955E+04    0.25569E+00   -0.21209E+01  4392   0.451E+00    0.153E+00
RMM:   2    -0.230546389962E+04   -0.29763E+00   -0.31335E+00  6416   0.108E+00    0.101E+00
RMM:   3    -0.230547327672E+04   -0.93771E-02   -0.32674E-01  6092   0.324E-01    0.619E-01
RMM:   4    -0.230547030302E+04    0.29737E-02   -0.36211E-02  5598   0.811E-02    0.430E-01
RMM:   5    -0.230546829687E+04    0.20062E-02   -0.72438E-03  5552   0.523E-02    0.246E-01
RMM:   6    -0.230546735113E+04    0.94574E-03   -0.31404E-03  5381   0.363E-02    0.782E-02
RMM:   7    -0.230546731425E+04    0.36885E-04   -0.39674E-04  4449   0.186E-02    0.408E-02
RMM:   8    -0.230546730555E+04    0.86921E-05   -0.79450E-05  3300   0.633E-03
  46 F= -.23258166E+04 E0= -.23258166E+04  d E =-.200131E+00  mag=     1.0000
       N       E                     dE             d eps       ncg     rms          rms(c)
DAV:   1    -0.230545082828E+04    0.16486E-01   -0.19279E+00  4400   0.136E+00    0.461E-01
RMM:   2    -0.230547711765E+04   -0.26289E-01   -0.27822E-01  6283   0.309E-01    0.311E-01
RMM:   3    -0.230547844914E+04   -0.13315E-02   -0.32927E-02  5897   0.113E-01    0.201E-01
RMM:   4    -0.230547803016E+04    0.41898E-03   -0.31138E-03  5334   0.251E-02    0.115E-01
RMM:   5    -0.230547783839E+04    0.19177E-03   -0.49559E-04  4883   0.156E-02    0.556E-02
RMM:   6    -0.230547782276E+04    0.15633E-04   -0.24078E-04  4286   0.119E-02    0.303E-02
RMM:   7    -0.230547780952E+04    0.13239E-04   -0.33287E-05  2871   0.632E-03    0.121E-02
RMM:   8    -0.230547780750E+04    0.20217E-05   -0.83351E-06  2852   0.285E-03
  47 F= -.23258264E+04 E0= -.23258264E+04  d E =-.209908E+00  mag=     1.0000
       N       E                     dE             d eps       ncg     rms          rms(c)
DAV:   1    -0.230551655915E+04   -0.38750E-01   -0.18046E+00  4444   0.143E+00    0.370E-01
RMM:   2    -0.230552620163E+04   -0.96425E-02   -0.10853E-01  6030   0.250E-01    0.165E-01
RMM:   3    -0.230552647655E+04   -0.27491E-03   -0.10731E-02  5177   0.887E-02    0.107E-01
RMM:   4    -0.230552643645E+04    0.40092E-04   -0.15401E-03  4952   0.263E-02    0.786E-02
RMM:   5    -0.230552632683E+04    0.10962E-03   -0.31225E-04  4660   0.159E-02    0.373E-02
RMM:   6    -0.230552631774E+04    0.90946E-05   -0.84093E-05  3447   0.723E-03
  48 F= -.23258750E+04 E0= -.23258750E+04  d E =-.485935E-01  mag=     1.0000
       N       E                     dE             d eps       ncg     rms          rms(c)
DAV:   1    -0.230551918722E+04    0.71396E-02   -0.16238E+01  4392   0.430E+00    0.111E+00
RMM:   2    -0.230560612071E+04   -0.86933E-01   -0.97891E-01  6012   0.745E-01    0.503E-01
RMM:   3    -0.230560891544E+04   -0.27947E-02   -0.10275E-01  5182   0.275E-01    0.335E-01
RMM:   4    -0.230560871889E+04    0.19655E-03   -0.13913E-02  5128   0.768E-02    0.252E-01
RMM:   5    -0.230560745099E+04    0.12679E-02   -0.28419E-03  5152   0.457E-02    0.103E-01
RMM:   6    -0.230560738687E+04    0.64126E-04   -0.75198E-04  4791   0.224E-02    0.618E-02
RMM:   7    -0.230560735730E+04    0.29573E-04   -0.19361E-04  3957   0.146E-02    0.407E-02
RMM:   8    -0.230560733128E+04    0.26012E-04   -0.46928E-05  2992   0.562E-03    0.156E-02
RMM:   9    -0.230560733005E+04    0.12294E-05   -0.17192E-05  2857   0.392E-03
  49 F= -.23259563E+04 E0= -.23259563E+04  d E =-.129845E+00  mag=     1.0000
       N       E                     dE             d eps       ncg     rms          rms(c)
DAV:   1    -0.230560292172E+04    0.44096E-02   -0.19106E+00  4672   0.147E+00    0.380E-01
RMM:   2    -0.230561305058E+04   -0.10129E-01   -0.11396E-01  6039   0.255E-01    0.171E-01
RMM:   3    -0.230561334118E+04   -0.29060E-03   -0.11317E-02  5147   0.922E-02    0.112E-01
RMM:   4    -0.230561332284E+04    0.18339E-04   -0.15738E-03  5059   0.261E-02    0.921E-02
RMM:   5    -0.230561316123E+04    0.16161E-03   -0.37009E-04  4707   0.168E-02    0.332E-02
RMM:   6    -0.230561316048E+04    0.74577E-06   -0.84751E-05  3521   0.742E-03
  50 F= -.23259622E+04 E0= -.23259622E+04  d E =-.135753E+00  mag=     1.0000
       N       E                     dE             d eps       ncg     rms          rms(c)
DAV:   1    -0.230564574849E+04   -0.32587E-01   -0.50076E+00  4392   0.231E+00    0.525E-01
RMM:   2    -0.230566447732E+04   -0.18729E-01   -0.19444E-01  5748   0.368E-01    0.411E-01
RMM:   3    -0.230566244275E+04    0.20346E-02   -0.17486E-02  5074   0.138E-01    0.277E-01
RMM:   4    -0.230566114530E+04    0.12974E-02   -0.19273E-03  4994   0.337E-02    0.125E-01
RMM:   5    -0.230566091365E+04    0.23165E-03   -0.14679E-03  5242   0.294E-02    0.677E-02
RMM:   6    -0.230566082436E+04    0.89287E-04   -0.25131E-04  5187   0.142E-02    0.245E-02
RMM:   7    -0.230566081491E+04    0.94449E-05   -0.30651E-05  2949   0.477E-03
  51 F= -.23260098E+04 E0= -.23260098E+04  d E =-.475921E-01  mag=     1.0000
       N       E                     dE             d eps       ncg     rms          rms(c)
DAV:   1    -0.230563370693E+04    0.27117E-01   -0.18650E+01  4392   0.446E+00    0.102E+00
RMM:   2    -0.230570446038E+04   -0.70753E-01   -0.73130E-01  5737   0.717E-01    0.812E-01
RMM:   3    -0.230569589282E+04    0.85676E-02   -0.64634E-02  5067   0.264E-01    0.541E-01
RMM:   4    -0.230569094050E+04    0.49523E-02   -0.73684E-03  5036   0.651E-02    0.244E-01
RMM:   5    -0.230569015363E+04    0.78687E-03   -0.52639E-03  5322   0.555E-02    0.155E-01
RMM:   6    -0.230568965516E+04    0.49847E-03   -0.11943E-03  5732   0.284E-02    0.465E-02
RMM:   7    -0.230568961829E+04    0.36865E-04   -0.14559E-04  3784   0.917E-03    0.229E-02
RMM:   8    -0.230568960494E+04    0.13358E-04   -0.31357E-05  3003   0.648E-03    0.119E-02
RMM:   9    -0.230568959925E+04    0.56845E-05   -0.14205E-05  2840   0.444E-03
  52 F= -.23260384E+04 E0= -.23260384E+04  d E =-.762291E-01  mag=     1.0000
       N       E                     dE             d eps       ncg     rms          rms(c)
DAV:   1    -0.230568918272E+04    0.42222E-03   -0.48766E-01  4656   0.721E-01    0.164E-01
RMM:   2    -0.230569101152E+04   -0.18288E-02   -0.18981E-02  5870   0.115E-01    0.128E-01
RMM:   3    -0.230569082353E+04    0.18800E-03   -0.16768E-03  4840   0.395E-02    0.885E-02
RMM:   4    -0.230569069196E+04    0.13157E-03   -0.18249E-04  4131   0.106E-02    0.389E-02
RMM:   5    -0.230569066802E+04    0.23935E-04   -0.13978E-04  4272   0.992E-03    0.183E-02
RMM:   6    -0.230569066239E+04    0.56312E-05   -0.21515E-05  2844   0.621E-03
  53 F= -.23260395E+04 E0= -.23260395E+04  d E =-.773184E-01  mag=     1.0000
       N       E                     dE             d eps       ncg     rms          rms(c)
DAV:   1    -0.230570388296E+04   -0.13215E-01   -0.22866E+00  4400   0.161E+00    0.483E-01
RMM:   2    -0.230571024979E+04   -0.63668E-02   -0.77301E-02  5120   0.252E-01    0.186E-01
RMM:   3    -0.230570951275E+04    0.73704E-03   -0.55594E-03  4536   0.108E-01    0.115E-01
RMM:   4    -0.230570951508E+04   -0.23304E-05   -0.20099E-03  4813   0.359E-02    0.126E-01
RMM:   5    -0.230570921470E+04    0.30038E-03   -0.46365E-04  4980   0.238E-02    0.300E-02
RMM:   6    -0.230570919728E+04    0.17418E-04   -0.77317E-05  3512   0.638E-03    0.232E-02
RMM:   7    -0.230570918650E+04    0.10781E-04   -0.25047E-05  2881   0.588E-03    0.110E-02
RMM:   8    -0.230570918149E+04    0.50135E-05   -0.10931E-05  2829   0.349E-03
  54 F= -.23260583E+04 E0= -.23260583E+04  d E =-.188450E-01  mag=     1.0000
       N       E                     dE             d eps       ncg     rms          rms(c)
DAV:   1    -0.230571016871E+04   -0.98220E-03   -0.11153E+00  4496   0.112E+00    0.336E-01
RMM:   2    -0.230571328091E+04   -0.31122E-02   -0.37827E-02  5253   0.177E-01    0.129E-01
RMM:   3    -0.230571291697E+04    0.36394E-03   -0.26182E-03  4604   0.689E-02    0.805E-02
RMM:   4    -0.230571291839E+04   -0.14229E-05   -0.94426E-04  4823   0.245E-02    0.895E-02
RMM:   5    -0.230571276482E+04    0.15357E-03   -0.23655E-04  4693   0.167E-02    0.204E-02
RMM:   6    -0.230571275552E+04    0.92987E-05   -0.37019E-05  3013   0.478E-03
  55 F= -.23260621E+04 E0= -.23260621E+04  d E =-.226400E-01  mag=     1.0000
       N       E                     dE             d eps       ncg     rms          rms(c)
DAV:   1    -0.230571186409E+04    0.90074E-03   -0.22935E+00  4392   0.158E+00    0.414E-01
RMM:   2    -0.230572728271E+04   -0.15419E-01   -0.16563E-01  5933   0.283E-01    0.247E-01
RMM:   3    -0.230572773225E+04   -0.44954E-03   -0.16760E-02  5364   0.103E-01    0.199E-01
RMM:   4    -0.230572714526E+04    0.58700E-03   -0.17272E-03  5343   0.256E-02    0.999E-02
RMM:   5    -0.230572696952E+04    0.17573E-03   -0.74544E-04  5086   0.197E-02    0.377E-02
RMM:   6    -0.230572695521E+04    0.14313E-04   -0.11948E-04  4213   0.107E-02    0.230E-02
RMM:   7    -0.230572694629E+04    0.89205E-05   -0.24893E-05  2839   0.464E-03
  56 F= -.23260769E+04 E0= -.23260769E+04  d E =-.147999E-01  mag=     1.0000
       N       E                     dE             d eps       ncg     rms          rms(c)
DAV:   1    -0.230570559276E+04    0.21362E-01   -0.40793E+00  4392   0.211E+00    0.552E-01
RMM:   2    -0.230573311728E+04   -0.27525E-01   -0.29610E-01  5942   0.377E-01    0.333E-01
RMM:   3    -0.230573393854E+04   -0.82127E-03   -0.29575E-02  5414   0.137E-01    0.278E-01
RMM:   4    -0.230573277518E+04    0.11634E-02   -0.30922E-03  5520   0.342E-02    0.133E-01
RMM:   5    -0.230573244430E+04    0.33087E-03   -0.13564E-03  5072   0.260E-02    0.498E-02
RMM:   6    -0.230573241101E+04    0.33294E-04   -0.21688E-04  4620   0.146E-02    0.328E-02
RMM:   7    -0.230573239001E+04    0.21005E-04   -0.48036E-05  3047   0.572E-03    0.146E-02
RMM:   8    -0.230573238357E+04    0.64358E-05   -0.16159E-05  2850   0.423E-03
  57 F= -.23260832E+04 E0= -.23260832E+04  d E =-.210500E-01  mag=     1.0000
       N       E                     dE             d eps       ncg     rms          rms(c)
DAV:   1    -0.230573064742E+04    0.17426E-02   -0.16184E+00  4428   0.131E+00    0.291E-01
RMM:   2    -0.230574315183E+04   -0.12504E-01   -0.13283E-01  6137   0.241E-01    0.195E-01
RMM:   3    -0.230574371333E+04   -0.56150E-03   -0.13206E-02  5549   0.775E-02    0.142E-01
RMM:   4    -0.230574349328E+04    0.22005E-03   -0.13289E-03  4846   0.185E-02    0.838E-02
RMM:   5    -0.230574338127E+04    0.11201E-03   -0.37371E-04  4663   0.136E-02    0.413E-02
RMM:   6    -0.230574336603E+04    0.15242E-04   -0.11261E-04  3580   0.100E-02    0.209E-02
RMM:   7    -0.230574336007E+04    0.59576E-05   -0.17055E-05  2827   0.495E-03
  58 F= -.23260946E+04 E0= -.23260946E+04  d E =-.113905E-01  mag=     1.0000
       N       E                     dE             d eps       ncg     rms          rms(c)
DAV:   1    -0.230564460569E+04    0.98760E-01   -0.14551E+01  4392   0.395E+00    0.871E-01
RMM:   2    -0.230575800190E+04   -0.11340E+00   -0.12078E+00  6156   0.729E-01    0.583E-01
RMM:   3    -0.230576393495E+04   -0.59330E-02   -0.12446E-01  5751   0.233E-01    0.467E-01
RMM:   4    -0.230576152814E+04    0.24068E-02   -0.12498E-02  5870   0.559E-02    0.256E-01
RMM:   5    -0.230576047785E+04    0.10503E-02   -0.31603E-03  4869   0.353E-02    0.138E-01
RMM:   6    -0.230576027392E+04    0.20393E-03   -0.13525E-03  5061   0.302E-02    0.699E-02
RMM:   7    -0.230576019874E+04    0.75177E-04   -0.16072E-04  4083   0.110E-02    0.289E-02
RMM:   8    -0.230576018869E+04    0.10046E-04   -0.58113E-05  2910   0.663E-03    0.146E-02
RMM:   9    -0.230576018600E+04    0.26916E-05   -0.11865E-05  2846   0.360E-03
  59 F= -.23261127E+04 E0= -.23261127E+04  d E =-.294822E-01  mag=     1.0000
       N       E                     dE             d eps       ncg     rms          rms(c)
DAV:   1    -0.230575324058E+04    0.69481E-02   -0.94392E-01  4528   0.100E+00    0.223E-01
RMM:   2    -0.230576053926E+04   -0.72987E-02   -0.77592E-02  6127   0.184E-01    0.148E-01
RMM:   3    -0.230576085931E+04   -0.32005E-03   -0.76801E-03  5457   0.591E-02    0.109E-01
RMM:   4    -0.230576073089E+04    0.12842E-03   -0.77707E-04  4305   0.143E-02    0.640E-02
RMM:   5    -0.230576066158E+04    0.69308E-04   -0.21790E-04  4399   0.109E-02    0.312E-02
RMM:   6    -0.230576065189E+04    0.96902E-05   -0.66134E-05  3060   0.810E-03
  60 F= -.23261135E+04 E0= -.23261135E+04  d E =-.302758E-01  mag=     1.0000
       N       E                     dE             d eps       ncg     rms          rms(c)
DAV:   1    -0.230575810596E+04    0.25556E-02   -0.33358E+00  4392   0.189E+00    0.446E-01
RMM:   2    -0.230577410520E+04   -0.15999E-01   -0.17641E-01  5829   0.311E-01    0.204E-01
RMM:   3    -0.230577441635E+04   -0.31115E-03   -0.15359E-02  5197   0.106E-01    0.143E-01
RMM:   4    -0.230577443077E+04   -0.14418E-04   -0.22305E-03  5158   0.301E-02    0.120E-01
RMM:   5    -0.230577417854E+04    0.25224E-03   -0.57514E-04  4994   0.198E-02    0.487E-02
RMM:   6    -0.230577417565E+04    0.28894E-05   -0.15975E-04  4081   0.101E-02    0.391E-02
RMM:   7    -0.230577414977E+04    0.25878E-04   -0.36764E-05  2896   0.657E-03    0.131E-02
RMM:   8    -0.230577414731E+04    0.24605E-05   -0.10779E-05  2834   0.344E-03
  61 F= -.23261272E+04 E0= -.23261272E+04  d E =-.137364E-01  mag=     1.0000
       N       E                     dE             d eps       ncg     rms          rms(c)
DAV:   1    -0.230575915817E+04    0.14992E-01   -0.36394E+00  4392   0.197E+00    0.464E-01
RMM:   2    -0.230577657310E+04   -0.17415E-01   -0.19185E-01  5753   0.323E-01    0.213E-01
RMM:   3    -0.230577688593E+04   -0.31283E-03   -0.16797E-02  5082   0.118E-01    0.150E-01
RMM:   4    -0.230577691598E+04   -0.30048E-04   -0.24643E-03  5138   0.318E-02    0.131E-01
RMM:   5    -0.230577661504E+04    0.30094E-03   -0.66703E-04  5040   0.215E-02    0.526E-02
RMM:   6    -0.230577660627E+04    0.87712E-05   -0.17985E-04  4172   0.106E-02    0.403E-02
RMM:   7    -0.230577657879E+04    0.27479E-04   -0.39973E-05  2905   0.686E-03    0.134E-02
RMM:   8    -0.230577657664E+04    0.21498E-05   -0.12603E-05  2837   0.357E-03
  62 F= -.23261299E+04 E0= -.23261299E+04  d E =-.164110E-01  mag=     1.0000
       N       E                     dE             d eps       ncg     rms          rms(c)
DAV:   1    -0.230577577205E+04    0.80674E-03   -0.28474E-01  4544   0.552E-01    0.129E-01
RMM:   2    -0.230577712752E+04   -0.13555E-02   -0.14886E-02  5812   0.905E-02    0.590E-02
RMM:   3    -0.230577714962E+04   -0.22099E-04   -0.12276E-03  4577   0.314E-02    0.401E-02
RMM:   4    -0.230577715477E+04   -0.51568E-05   -0.18904E-04  3689   0.941E-03    0.381E-02
RMM:   5    -0.230577713089E+04    0.23888E-04   -0.56462E-05  3040   0.731E-03    0.128E-02
RMM:   6    -0.230577713120E+04   -0.31752E-06   -0.14644E-05  2827   0.479E-03
  63 F= -.23261303E+04 E0= -.23261303E+04  d E =-.168975E-01  mag=     1.0000
       N       E                     dE             d eps       ncg     rms          rms(c)
DAV:   1    -0.230576759098E+04    0.95399E-02   -0.32600E+00  4392   0.186E+00    0.438E-01
RMM:   2    -0.230578791595E+04   -0.20325E-01   -0.21905E-01  6024   0.326E-01    0.230E-01
RMM:   3    -0.230578859715E+04   -0.68120E-03   -0.18539E-02  5301   0.109E-01    0.181E-01
RMM:   4    -0.230578838059E+04    0.21655E-03   -0.22292E-03  5578   0.265E-02    0.125E-01
RMM:   5    -0.230578816435E+04    0.21625E-03   -0.74139E-04  4965   0.187E-02    0.689E-02
RMM:   6    -0.230578810089E+04    0.63452E-04   -0.26091E-04  4464   0.139E-02    0.276E-02
RMM:   7    -0.230578808730E+04    0.13595E-04   -0.33762E-05  2887   0.646E-03    0.118E-02
RMM:   8    -0.230578808511E+04    0.21900E-05   -0.11158E-05  2854   0.342E-03
  64 F= -.23261415E+04 E0= -.23261415E+04  d E =-.111632E-01  mag=     1.0000
       N       E                     dE             d eps       ncg     rms          rms(c)
DAV:   1    -0.230578012298E+04    0.79643E-02   -0.16630E+00  4392   0.133E+00    0.314E-01
RMM:   2    -0.230579050205E+04   -0.10379E-01   -0.11183E-01  6054   0.233E-01    0.163E-01
RMM:   3    -0.230579084836E+04   -0.34631E-03   -0.92280E-03  5269   0.759E-02    0.126E-01
RMM:   4    -0.230579074964E+04    0.98721E-04   -0.11435E-03  5129   0.189E-02    0.897E-02
RMM:   5    -0.230579063872E+04    0.11092E-03   -0.38500E-04  4805   0.140E-02    0.499E-02
RMM:   6    -0.230579060525E+04    0.33473E-04   -0.12791E-04  3897   0.102E-02    0.192E-02
RMM:   7    -0.230579059847E+04    0.67764E-05   -0.18093E-05  2834   0.517E-03
  65 F= -.23261442E+04 E0= -.23261442E+04  d E =-.138276E-01  mag=     1.0000
       N       E                     dE             d eps       ncg     rms          rms(c)
DAV:   1    -0.230577252794E+04    0.18077E-01   -0.32953E+00  4392   0.190E+00    0.474E-01
RMM:   2    -0.230579990307E+04   -0.27375E-01   -0.29136E-01  6145   0.356E-01    0.288E-01
RMM:   3    -0.230580091580E+04   -0.10127E-02   -0.26388E-02  5582   0.114E-01    0.185E-01
RMM:   4    -0.230580064129E+04    0.27452E-03   -0.30493E-03  5428   0.271E-02    0.148E-01
RMM:   5    -0.230580036066E+04    0.28063E-03   -0.87834E-04  5161   0.204E-02    0.841E-02
RMM:   6    -0.230580026414E+04    0.96520E-04   -0.51914E-04  5034   0.157E-02    0.341E-02
RMM:   7    -0.230580023984E+04    0.24299E-04   -0.44874E-05  2978   0.813E-03    0.157E-02
RMM:   8    -0.230580023490E+04    0.49411E-05   -0.15902E-05  2853   0.339E-03
  66 F= -.23261543E+04 E0= -.23261543E+04  d E =-.101068E-01  mag=     1.0000
       N       E                     dE             d eps       ncg     rms          rms(c)
DAV:   1    -0.230578207445E+04    0.18165E-01   -0.23836E+00  4392   0.161E+00    0.403E-01
RMM:   2    -0.230580182448E+04   -0.19750E-01   -0.21026E-01  6146   0.303E-01    0.245E-01
RMM:   3    -0.230580256858E+04   -0.74410E-03   -0.19088E-02  5552   0.959E-02    0.158E-01
RMM:   4    -0.230580235844E+04    0.21014E-03   -0.21869E-03  5287   0.231E-02    0.126E-01
RMM:   5    -0.230580215095E+04    0.20749E-03   -0.64280E-04  4990   0.178E-02    0.717E-02
RMM:   6    -0.230580207844E+04    0.72512E-04   -0.38465E-04  4860   0.137E-02    0.294E-02
RMM:   7    -0.230580205965E+04    0.18788E-04   -0.34309E-05  2918   0.744E-03    0.138E-02
RMM:   8    -0.230580205536E+04    0.42890E-05   -0.12753E-05  2843   0.313E-03
  67 F= -.23261565E+04 E0= -.23261565E+04  d E =-.123421E-01  mag=     1.0000
       N       E                     dE             d eps       ncg     rms          rms(c)
DAV:   1    -0.230578041640E+04    0.21643E-01   -0.32700E+00  4408   0.189E+00    0.482E-01
RMM:   2    -0.230580925828E+04   -0.28842E-01   -0.29617E-01  6181   0.360E-01    0.385E-01
RMM:   3    -0.230580880610E+04    0.45218E-03   -0.24670E-02  5624   0.110E-01    0.216E-01
RMM:   4    -0.230580818218E+04    0.62391E-03   -0.29365E-03  5283   0.272E-02    0.134E-01
RMM:   5    -0.230580795900E+04    0.22319E-03   -0.81869E-04  5157   0.204E-02    0.828E-02
RMM:   6    -0.230580786846E+04    0.90538E-04   -0.50641E-04  5058   0.163E-02    0.304E-02
RMM:   7    -0.230580785031E+04    0.18145E-04   -0.38141E-05  2954   0.698E-03    0.144E-02
RMM:   8    -0.230580784612E+04    0.41934E-05   -0.12086E-05  2839   0.346E-03
  68 F= -.23261631E+04 E0= -.23261631E+04  d E =-.660658E-02  mag=     1.0000
       N       E                     dE             d eps       ncg     rms          rms(c)
DAV:   1    -0.230580215954E+04    0.56908E-02   -0.73258E-01  4560   0.894E-01    0.228E-01
RMM:   2    -0.230580857630E+04   -0.64168E-02   -0.66060E-02  6159   0.169E-01    0.179E-01
RMM:   3    -0.230580852088E+04    0.55421E-04   -0.54391E-03  5363   0.536E-02    0.104E-01
RMM:   4    -0.230580837329E+04    0.14759E-03   -0.66303E-04  4614   0.131E-02    0.634E-02
RMM:   5    -0.230580831890E+04    0.54395E-04   -0.18425E-04  4100   0.106E-02    0.381E-02
RMM:   6    -0.230580830082E+04    0.18083E-04   -0.11361E-04  3729   0.875E-03    0.147E-02
RMM:   7    -0.230580829661E+04    0.42096E-05   -0.11811E-05  2832   0.498E-03
  69 F= -.23261640E+04 E0= -.23261640E+04  d E =-.744988E-02  mag=     1.0000
       N       E                     dE             d eps       ncg     rms          rms(c)
DAV:   1    -0.230580467923E+04    0.36216E-02   -0.11476E+00  4460   0.113E+00    0.292E-01
RMM:   2    -0.230581359353E+04   -0.89143E-02   -0.90617E-02  6018   0.211E-01    0.229E-01
RMM:   3    -0.230581330600E+04    0.28753E-03   -0.79248E-03  5305   0.705E-02    0.130E-01
RMM:   4    -0.230581304906E+04    0.25694E-03   -0.91879E-04  4737   0.172E-02    0.711E-02
RMM:   5    -0.230581296046E+04    0.88604E-04   -0.30098E-04  4707   0.145E-02    0.226E-02
RMM:   6    -0.230581295940E+04    0.10622E-05   -0.52110E-05  3130   0.772E-03
  70 F= -.23261693E+04 E0= -.23261693E+04  d E =-.535186E-02  mag=     1.0000
       N       E                     dE             d eps       ncg     rms          rms(c)
DAV:   1    -0.230580255978E+04    0.10401E-01   -0.15907E+00  4460   0.133E+00    0.345E-01
RMM:   2    -0.230581495454E+04   -0.12395E-01   -0.12610E-01  6042   0.249E-01    0.268E-01
RMM:   3    -0.230581456278E+04    0.39176E-03   -0.10989E-02  5497   0.741E-02    0.154E-01
RMM:   4    -0.230581420558E+04    0.35720E-03   -0.12639E-03  4850   0.198E-02    0.840E-02
RMM:   5    -0.230581408334E+04    0.12224E-03   -0.42075E-04  4905   0.167E-02    0.269E-02
RMM:   6    -0.230581408096E+04    0.23859E-05   -0.71700E-05  3543   0.879E-03
  71 F= -.23261713E+04 E0= -.23261713E+04  d E =-.729028E-02  mag=     1.0000
       N       E                     dE             d eps       ncg     rms          rms(c)
DAV:   1    -0.230580488800E+04    0.91953E-02   -0.14857E+00  4396   0.127E+00    0.293E-01
RMM:   2    -0.230581720547E+04   -0.12317E-01   -0.12770E-01  6144   0.237E-01    0.230E-01
RMM:   3    -0.230581739035E+04   -0.18487E-03   -0.12705E-02  5149   0.798E-02    0.139E-01
RMM:   4    -0.230581715483E+04    0.23551E-03   -0.12016E-03  4858   0.180E-02    0.825E-02
RMM:   5    -0.230581704798E+04    0.10685E-03   -0.43280E-04  4901   0.159E-02    0.394E-02
RMM:   6    -0.230581702996E+04    0.18022E-04   -0.91486E-05  3784   0.862E-03    0.197E-02
RMM:   7    -0.230581702398E+04    0.59784E-05   -0.16681E-05  2844   0.468E-03
  72 F= -.23261750E+04 E0= -.23261750E+04  d E =-.369404E-02  mag=     1.0000
       N       E                     dE             d eps       ncg     rms          rms(c)
DAV:   1    -0.230580810201E+04    0.89279E-02   -0.10285E+00  4400   0.106E+00    0.243E-01
RMM:   2    -0.230581664445E+04   -0.85424E-02   -0.88420E-02  6147   0.198E-01    0.192E-01
RMM:   3    -0.230581675055E+04   -0.10610E-03   -0.87667E-03  5085   0.686E-02    0.114E-01
RMM:   4    -0.230581658949E+04    0.16107E-03   -0.83800E-04  4735   0.152E-02    0.692E-02
RMM:   5    -0.230581651336E+04    0.76122E-04   -0.30529E-04  4570   0.136E-02    0.338E-02
RMM:   6    -0.230581649785E+04    0.15515E-04   -0.68641E-05  3402   0.779E-03    0.164E-02
RMM:   7    -0.230581649371E+04    0.41381E-05   -0.12863E-05  2845   0.464E-03
  73 F= -.23261751E+04 E0= -.23261751E+04  d E =-.379393E-02  mag=     1.0000
       N       E                     dE             d eps       ncg     rms          rms(c)
DAV:   1    -0.230581562786E+04    0.86999E-03   -0.17463E-01  4528   0.437E-01    0.992E-02
RMM:   2    -0.230581706392E+04   -0.14361E-02   -0.14828E-02  6170   0.814E-02    0.782E-02
RMM:   3    -0.230581707256E+04   -0.86376E-05   -0.14261E-03  3969   0.260E-02    0.448E-02
RMM:   4    -0.230581704836E+04    0.24200E-04   -0.13832E-04  2972   0.709E-03    0.289E-02
RMM:   5    -0.230581703909E+04    0.92757E-05   -0.47285E-05  2920   0.602E-03
  74 F= -.23261753E+04 E0= -.23261753E+04  d E =-.407913E-02  mag=     1.0000
       N       E                     dE             d eps       ncg     rms          rms(c)
DAV:   1    -0.230580970168E+04    0.73467E-02   -0.15856E+00  4460   0.131E+00    0.273E-01
RMM:   2    -0.230582045684E+04   -0.10755E-01   -0.11410E-01  5905   0.227E-01    0.174E-01
RMM:   3    -0.230582081743E+04   -0.36059E-03   -0.10064E-02  5160   0.815E-02    0.123E-01
RMM:   4    -0.230582065638E+04    0.16105E-03   -0.10755E-03  5054   0.181E-02    0.867E-02
RMM:   5    -0.230582053259E+04    0.12379E-03   -0.41844E-04  4654   0.158E-02    0.319E-02
RMM:   6    -0.230582052427E+04    0.83244E-05   -0.80740E-05  3594   0.920E-03
  75 F= -.23261795E+04 E0= -.23261795E+04  d E =-.417266E-02  mag=     1.0000
       N       E                     dE             d eps       ncg     rms          rms(c)
DAV:   1    -0.230577173110E+04    0.48801E-01   -0.68692E+00  4456   0.273E+00    0.573E-01
RMM:   2    -0.230581848964E+04   -0.46759E-01   -0.49759E-01  5985   0.472E-01    0.364E-01
RMM:   3    -0.230582034439E+04   -0.18548E-02   -0.44233E-02  5338   0.157E-01    0.268E-01
RMM:   4    -0.230581957143E+04    0.77296E-03   -0.48231E-03  5620   0.372E-02    0.180E-01
RMM:   5    -0.230581903341E+04    0.53802E-03   -0.18520E-03  4879   0.315E-02    0.642E-02
RMM:   6    -0.230581900439E+04    0.29025E-04   -0.30286E-04  4741   0.181E-02    0.332E-02
RMM:   7    -0.230581899254E+04    0.11852E-04   -0.66451E-05  3340   0.619E-03    0.240E-02
RMM:   8    -0.230581898170E+04    0.10832E-04   -0.24131E-05  2836   0.534E-03    0.107E-02
RMM:   9    -0.230581897980E+04    0.19054E-05   -0.10005E-05  2837   0.292E-03
  76 F= -.23261794E+04 E0= -.23261794E+04  d E =-.408129E-02  mag=     1.0000
       N       E                     dE             d eps       ncg     rms          rms(c)
DAV:   1    -0.230581013980E+04    0.88419E-02   -0.16114E+00  4392   0.132E+00    0.277E-01
RMM:   2    -0.230582115069E+04   -0.11011E-01   -0.11656E-01  6072   0.231E-01    0.183E-01
RMM:   3    -0.230582149526E+04   -0.34457E-03   -0.10733E-02  5349   0.762E-02    0.122E-01
RMM:   4    -0.230582134357E+04    0.15169E-03   -0.11029E-03  4978   0.179E-02    0.879E-02
RMM:   5    -0.230582123231E+04    0.11126E-03   -0.35065E-04  4596   0.145E-02    0.405E-02
RMM:   6    -0.230582121757E+04    0.14734E-04   -0.13588E-04  4106   0.100E-02    0.215E-02
RMM:   7    -0.230582120972E+04    0.78515E-05   -0.17356E-05  2838   0.546E-03
  77 F= -.23261809E+04 E0= -.23261809E+04  d E =-.560451E-02  mag=     1.0000
       N       E                     dE             d eps       ncg     rms          rms(c)
DAV:   1    -0.230581285633E+04    0.83612E-02   -0.15892E+00  4456   0.131E+00    0.291E-01
RMM:   2    -0.230582404689E+04   -0.11191E-01   -0.11961E-01  6137   0.233E-01    0.181E-01
RMM:   3    -0.230582450944E+04   -0.46255E-03   -0.10631E-02  5436   0.741E-02    0.129E-01
RMM:   4    -0.230582430782E+04    0.20162E-03   -0.11192E-03  5104   0.178E-02    0.862E-02
RMM:   5    -0.230582418664E+04    0.12118E-03   -0.41158E-04  4560   0.153E-02    0.316E-02
RMM:   6    -0.230582418045E+04    0.61916E-05   -0.87283E-05  3425   0.935E-03
  78 F= -.23261844E+04 E0= -.23261844E+04  d E =-.350616E-02  mag=     1.0000
       N       E                     dE             d eps       ncg     rms          rms(c)
DAV:   1    -0.230581192362E+04    0.12263E-01   -0.17335E+00  4456   0.137E+00    0.308E-01
RMM:   2    -0.230582426207E+04   -0.12338E-01   -0.13172E-01  6134   0.245E-01    0.194E-01
RMM:   3    -0.230582475842E+04   -0.49634E-03   -0.11761E-02  5514   0.741E-02    0.138E-01
RMM:   4    -0.230582452810E+04    0.23031E-03   -0.12548E-03  5128   0.185E-02    0.902E-02
RMM:   5    -0.230582439865E+04    0.12945E-03   -0.44123E-04  4560   0.156E-02    0.329E-02
RMM:   6    -0.230582439272E+04    0.59349E-05   -0.91897E-05  3558   0.994E-03
  79 F= -.23261852E+04 E0= -.23261852E+04  d E =-.428404E-02  mag=     1.0000
       N       E                     dE             d eps       ncg     rms          rms(c)
DAV:   1    -0.230581234867E+04    0.12050E-01   -0.19757E+00  4456   0.145E+00    0.321E-01
RMM:   2    -0.230582669940E+04   -0.14351E-01   -0.15305E-01  6177   0.265E-01    0.217E-01
RMM:   3    -0.230582717559E+04   -0.47619E-03   -0.13553E-02  5504   0.794E-02    0.154E-01
RMM:   4    -0.230582689222E+04    0.28337E-03   -0.14013E-03  5227   0.199E-02    0.956E-02
RMM:   5    -0.230582676231E+04    0.12992E-03   -0.49133E-04  4577   0.162E-02    0.389E-02
RMM:   6    -0.230582675564E+04    0.66635E-05   -0.11141E-04  3648   0.107E-02    0.219E-02
RMM:   7    -0.230582674931E+04    0.63299E-05   -0.21811E-05  2840   0.463E-03
  80 F= -.23261880E+04 E0= -.23261880E+04  d E =-.280738E-02  mag=     1.0000
       N       E                     dE             d eps       ncg     rms          rms(c)
DAV:   1    -0.230582404942E+04    0.27062E-02   -0.38072E-01  4544   0.638E-01    0.142E-01
RMM:   2    -0.230582681434E+04   -0.27649E-02   -0.29415E-02  6251   0.117E-01    0.968E-02
RMM:   3    -0.230582690232E+04   -0.87987E-04   -0.25633E-03  4820   0.372E-02    0.659E-02
RMM:   4    -0.230582684955E+04    0.52769E-04   -0.26123E-04  3453   0.926E-03    0.418E-02
RMM:   5    -0.230582682424E+04    0.25311E-04   -0.98031E-05  3706   0.849E-03    0.159E-02
RMM:   6    -0.230582682402E+04    0.22128E-06   -0.21653E-05  2872   0.567E-03
  81 F= -.23261883E+04 E0= -.23261883E+04  d E =-.308260E-02  mag=     1.0000
       N       E                     dE             d eps       ncg     rms          rms(c)
DAV:   1    -0.230582653245E+04    0.29179E-03   -0.61630E-01  4396   0.817E-01    0.200E-01
RMM:   2    -0.230582907891E+04   -0.25465E-02   -0.27428E-02  5843   0.137E-01    0.112E-01
RMM:   3    -0.230582905021E+04    0.28698E-04   -0.20862E-03  5170   0.423E-02    0.898E-02
RMM:   4    -0.230582893459E+04    0.11563E-03   -0.31091E-04  4833   0.127E-02    0.544E-02
RMM:   5    -0.230582889106E+04    0.43525E-04   -0.16909E-04  4228   0.117E-02    0.143E-02
RMM:   6    -0.230582889000E+04    0.10646E-05   -0.21161E-05  2867   0.618E-03
  82 F= -.23261906E+04 E0= -.23261906E+04  d E =-.232046E-02  mag=     1.0000
       N       E                     dE             d eps       ncg     rms          rms(c)
DAV:   1    -0.230582826611E+04    0.62495E-03   -0.20719E-01  4480   0.474E-01    0.117E-01
RMM:   2    -0.230582913319E+04   -0.86708E-03   -0.93080E-03  5830   0.800E-02    0.656E-02
RMM:   3    -0.230582912103E+04    0.12162E-04   -0.69811E-04  4393   0.240E-02    0.525E-02
RMM:   4    -0.230582908162E+04    0.39415E-04   -0.10404E-04  3437   0.796E-03    0.321E-02
RMM:   5    -0.230582906630E+04    0.15312E-04   -0.61063E-05  3446   0.759E-03    0.826E-03
RMM:   6    -0.230582906597E+04    0.33794E-06   -0.91457E-06  2839   0.488E-03
  83 F= -.23261910E+04 E0= -.23261910E+04  d E =-.264452E-02  mag=     1.0000
       N       E                     dE             d eps       ncg     rms          rms(c)
DAV:   1    -0.230582842291E+04    0.64340E-03   -0.76940E-01  4396   0.906E-01    0.197E-01
RMM:   2    -0.230583125461E+04   -0.28317E-02   -0.29976E-02  5939   0.150E-01    0.135E-01
RMM:   3    -0.230583108721E+04    0.16740E-03   -0.20782E-03  5037   0.434E-02    0.101E-01
[...]
RMM:   2    -0.230585421039E+04   -0.30710E-03   -0.34103E-03  6141   0.410E-02    0.319E-02
RMM:   3    -0.230585421878E+04   -0.83934E-05   -0.30562E-04  3213   0.135E-02    0.214E-02
RMM:   4    -0.230585421718E+04    0.16074E-05   -0.37645E-05  2860   0.483E-03
 160 F= -.23262227E+04 E0= -.23262227E+04  d E =-.179716E-03  mag=     1.0000
       N       E                     dE             d eps       ncg     rms          rms(c)
DAV:   1    -0.230585402199E+04    0.19679E-03   -0.25290E-02  4448   0.163E-01    0.489E-02
RMM:   2    -0.230585419978E+04   -0.17779E-03   -0.19397E-03  6108   0.312E-02    0.312E-02
RMM:   3    -0.230585420693E+04   -0.71534E-05   -0.20684E-04  3036   0.114E-02    0.284E-02
RMM:   4    -0.230585419573E+04    0.11206E-04   -0.22120E-05  2832   0.442E-03    0.124E-02
RMM:   5    -0.230585419406E+04    0.16659E-05   -0.14722E-05  2856   0.323E-03
 161 F= -.23262227E+04 E0= -.23262227E+04  d E =-.198318E-03  mag=     1.0000
       N       E                     dE             d eps       ncg     rms          rms(c)
DAV:   1    -0.230585400554E+04    0.19019E-03   -0.48514E-02  4424   0.223E-01    0.644E-02
RMM:   2    -0.230585434827E+04   -0.34274E-03   -0.38000E-03  6139   0.433E-02    0.334E-02
RMM:   3    -0.230585435845E+04   -0.10176E-04   -0.34066E-04  3314   0.146E-02    0.225E-02
RMM:   4    -0.230585435653E+04    0.19139E-05   -0.41480E-05  2872   0.503E-03
 162 F= -.23262229E+04 E0= -.23262229E+04  d E =-.189292E-03  mag=     1.0000
       N       E                     dE             d eps       ncg     rms          rms(c)
DAV:   1    -0.230585428813E+04    0.70320E-04   -0.83196E-03  4696   0.926E-02    0.298E-02
RMM:   2    -0.230585435155E+04   -0.63421E-04   -0.67611E-04  5743   0.186E-02    0.227E-02
RMM:   3    -0.230585435089E+04    0.66386E-06   -0.73876E-05  2857   0.729E-03
 163 F= -.23262229E+04 E0= -.23262229E+04  d E =-.194962E-03  mag=     1.0000
       N       E                     dE             d eps       ncg     rms          rms(c)
DAV:   1    -0.230585426400E+04    0.87547E-04   -0.36787E-02  4424   0.197E-01    0.646E-02
RMM:   2    -0.230585450199E+04   -0.23799E-03   -0.26862E-03  6055   0.381E-02    0.314E-02
RMM:   3    -0.230585450233E+04   -0.33820E-06   -0.22816E-04  3104   0.119E-02    0.207E-02
RMM:   4    -0.230585450112E+04    0.12150E-05   -0.33491E-05  2890   0.481E-03
 164 F= -.23262231E+04 E0= -.23262231E+04  d E =-.169014E-03  mag=     1.0000
       N       E                     dE             d eps       ncg     rms          rms(c)
DAV:   1    -0.230585445171E+04    0.50624E-04   -0.63665E-03  4736   0.824E-02    0.285E-02
RMM:   2    -0.230585449551E+04   -0.43806E-04   -0.48032E-04  5517   0.165E-02    0.192E-02
RMM:   3    -0.230585449633E+04   -0.81857E-06   -0.54660E-05  2842   0.689E-03
 165 F= -.23262231E+04 E0= -.23262231E+04  d E =-.172208E-03  mag=     1.0000
       N       E                     dE             d eps       ncg     rms          rms(c)
DAV:   1    -0.230585434614E+04    0.14938E-03   -0.38184E-02  4424   0.198E-01    0.617E-02
RMM:   2    -0.230585460629E+04   -0.26015E-03   -0.28710E-03  6149   0.389E-02    0.325E-02
RMM:   3    -0.230585460772E+04   -0.14323E-05   -0.23484E-04  3050   0.111E-02    0.214E-02
RMM:   4    -0.230585460410E+04    0.36181E-05   -0.31717E-05  2886   0.473E-03
 166 F= -.23262232E+04 E0= -.23262232E+04  d E =-.135711E-03  mag=     1.0000
       N       E                     dE             d eps       ncg     rms          rms(c)
DAV:   1    -0.230585455749E+04    0.50230E-04   -0.53492E-03  4736   0.743E-02    0.250E-02
RMM:   2    -0.230585459802E+04   -0.40537E-04   -0.42082E-04  5437   0.151E-02    0.197E-02
RMM:   3    -0.230585459605E+04    0.19794E-05   -0.44704E-05  2831   0.608E-03
 167 F= -.23262232E+04 E0= -.23262232E+04  d E =-.138360E-03  mag=     1.0000
       N       E                     dE             d eps       ncg     rms          rms(c)
DAV:   1    -0.230585443985E+04    0.15818E-03   -0.45286E-02  4424   0.219E-01    0.698E-02
RMM:   2    -0.230585472443E+04   -0.28458E-03   -0.31836E-03  6108   0.422E-02    0.342E-02
RMM:   3    -0.230585472342E+04    0.10125E-05   -0.25501E-04  3158   0.125E-02    0.223E-02
RMM:   4    -0.230585471884E+04    0.45795E-05   -0.36109E-05  2902   0.514E-03
 168 F= -.23262234E+04 E0= -.23262234E+04  d E =-.158933E-03  mag=     1.0000
       N       E                     dE             d eps       ncg     rms          rms(c)
DAV:   1    -0.230585468156E+04    0.41859E-04   -0.30911E-03  5040   0.575E-02    0.206E-02
RMM:   2    -0.230585470428E+04   -0.22725E-04   -0.23363E-04  4587   0.119E-02    0.171E-02
RMM:   3    -0.230585470183E+04    0.24538E-05   -0.28766E-05  2819   0.571E-03
 169 F= -.23262234E+04 E0= -.23262234E+04  d E =-.151695E-03  mag=     1.0000
       N       E                     dE             d eps       ncg     rms          rms(c)
DAV:   1    -0.230585448756E+04    0.21672E-03   -0.44323E-02  4392   0.218E-01    0.672E-02
RMM:   2    -0.230585477759E+04   -0.29003E-03   -0.32454E-03  6089   0.412E-02    0.318E-02
RMM:   3    -0.230585478020E+04   -0.26112E-05   -0.26435E-04  3175   0.127E-02    0.209E-02
RMM:   4    -0.230585477935E+04    0.85428E-06   -0.39453E-05  2873   0.507E-03
 170 F= -.23262235E+04 E0= -.23262235E+04  d E =-.129294E-03  mag=     1.0000
       N       E                     dE             d eps       ncg     rms          rms(c)
DAV:   1    -0.230585473458E+04    0.45622E-04   -0.34782E-03  5040   0.615E-02    0.215E-02
RMM:   2    -0.230585476076E+04   -0.26180E-04   -0.27013E-04  4743   0.123E-02    0.171E-02
RMM:   3    -0.230585475888E+04    0.18799E-05   -0.31316E-05  2823   0.579E-03
 171 F= -.23262235E+04 E0= -.23262235E+04  d E =-.123725E-03  mag=     1.0000
       N       E                     dE             d eps       ncg     rms          rms(c)
DAV:   1    -0.230585458418E+04    0.17658E-03   -0.33310E-02  4424   0.188E-01    0.574E-02
RMM:   2    -0.230585483716E+04   -0.25297E-03   -0.27899E-03  6097   0.360E-02    0.295E-02
RMM:   3    -0.230585484480E+04   -0.76407E-05   -0.25307E-04  3053   0.116E-02    0.206E-02
RMM:   4    -0.230585484261E+04    0.21916E-05   -0.32031E-05  2855   0.446E-03
 172 F= -.23262237E+04 E0= -.23262237E+04  d E =-.149615E-03  mag=     1.0000
       N       E                     dE             d eps       ncg     rms          rms(c)
DAV:   1    -0.230585469029E+04    0.15451E-03   -0.15236E-02  4432   0.127E-01    0.399E-02
RMM:   2    -0.230585480866E+04   -0.11837E-03   -0.12990E-03  6040   0.249E-02    0.247E-02
RMM:   3    -0.230585481495E+04   -0.62944E-05   -0.14139E-04  2905   0.947E-03    0.235E-02
RMM:   4    -0.230585480718E+04    0.77766E-05   -0.15056E-05  2825   0.370E-03
 173 F= -.23262237E+04 E0= -.23262237E+04  d E =-.159308E-03  mag=     1.0000
       N       E                     dE             d eps       ncg     rms          rms(c)
DAV:   1    -0.230585458472E+04    0.23023E-03   -0.38229E-02  4424   0.202E-01    0.620E-02
RMM:   2    -0.230585489456E+04   -0.30984E-03   -0.34342E-03  6166   0.392E-02    0.299E-02
RMM:   3    -0.230585490639E+04   -0.11828E-04   -0.31040E-04  3133   0.129E-02    0.221E-02
RMM:   4    -0.230585490448E+04    0.19078E-05   -0.38755E-05  2854   0.468E-03
 174 F= -.23262238E+04 E0= -.23262238E+04  d E =-.160786E-03  mag=     1.0000
       N       E                     dE             d eps       ncg     rms          rms(c)
DAV:   1    -0.230585480647E+04    0.99917E-04   -0.86619E-03  4656   0.963E-02    0.309E-02
RMM:   2    -0.230585487859E+04   -0.72117E-04   -0.79645E-04  5864   0.192E-02    0.189E-02
RMM:   3    -0.230585488321E+04   -0.46214E-05   -0.88692E-05  2846   0.774E-03
 175 F= -.23262238E+04 E0= -.23262238E+04  d E =-.170140E-03  mag=     1.0000
       N       E                     dE             d eps       ncg     rms          rms(c)
DAV:   1    -0.230585463413E+04    0.24446E-03   -0.40241E-02  4424   0.208E-01    0.674E-02
RMM:   2    -0.230585496359E+04   -0.32947E-03   -0.36748E-03  6115   0.406E-02    0.324E-02
RMM:   3    -0.230585497179E+04   -0.81975E-05   -0.33749E-04  3121   0.129E-02    0.201E-02
RMM:   4    -0.230585496921E+04    0.25819E-05   -0.41971E-05  2886   0.477E-03
 176 F= -.23262240E+04 E0= -.23262240E+04  d E =-.134558E-03  mag=     1.0000
       N       E                     dE             d eps       ncg     rms          rms(c)
DAV:   1    -0.230585492150E+04    0.50293E-04   -0.35789E-03  5024   0.624E-02    0.231E-02
RMM:   2    -0.230585495419E+04   -0.32690E-04   -0.34409E-04  4876   0.131E-02    0.182E-02
RMM:   3    -0.230585495226E+04    0.19272E-05   -0.39031E-05  2832   0.606E-03
 177 F= -.23262240E+04 E0= -.23262240E+04  d E =-.132399E-03  mag=     1.0000
       N       E                     dE             d eps       ncg     rms          rms(c)
DAV:   1    -0.230585475092E+04    0.20327E-03   -0.32570E-02  4456   0.184E-01    0.554E-02
RMM:   2    -0.230585503987E+04   -0.28895E-03   -0.31722E-03  6189   0.364E-02    0.293E-02
RMM:   3    -0.230585504818E+04   -0.83176E-05   -0.27036E-04  2987   0.112E-02    0.187E-02
RMM:   4    -0.230585504680E+04    0.13869E-05   -0.33762E-05  2866   0.429E-03
 178 F= -.23262241E+04 E0= -.23262241E+04  d E =-.121336E-03  mag=     1.0000
       N       E                     dE             d eps       ncg     rms          rms(c)
DAV:   1    -0.230585493853E+04    0.10965E-03   -0.10858E-02  4528   0.106E-01    0.329E-02
RMM:   2    -0.230585503576E+04   -0.97228E-04   -0.10686E-03  6013   0.211E-02    0.196E-02
RMM:   3    -0.230585503900E+04   -0.32427E-05   -0.95421E-05  2847   0.778E-03
 179 F= -.23262241E+04 E0= -.23262241E+04  d E =-.129267E-03  mag=     1.0000
       N       E                     dE             d eps       ncg     rms          rms(c)
DAV:   1    -0.230585483192E+04    0.20384E-03   -0.37397E-02  4424   0.201E-01    0.640E-02
RMM:   2    -0.230585512421E+04   -0.29229E-03   -0.32614E-03  6067   0.388E-02    0.327E-02
RMM:   3    -0.230585513317E+04   -0.89674E-05   -0.30767E-04  3091   0.123E-02    0.274E-02
RMM:   4    -0.230585512705E+04    0.61230E-05   -0.41323E-05  2855   0.487E-03
 180 F= -.23262242E+04 E0= -.23262242E+04  d E =-.137309E-03  mag=     1.0000
       N       E                     dE             d eps       ncg     rms          rms(c)
DAV:   1    -0.230585507931E+04    0.53859E-04   -0.32795E-03  5056   0.599E-02    0.211E-02
RMM:   2    -0.230585510479E+04   -0.25478E-04   -0.30050E-04  4643   0.121E-02    0.136E-02
RMM:   3    -0.230585510615E+04   -0.13620E-05   -0.35245E-05  2826   0.597E-03
 181 F= -.23262242E+04 E0= -.23262242E+04  d E =-.131469E-03  mag=     1.0000
       N       E                     dE             d eps       ncg     rms          rms(c)
DAV:   1    -0.230585499973E+04    0.10507E-03   -0.26830E-02  4456   0.170E-01    0.534E-02
RMM:   2    -0.230585518463E+04   -0.18490E-03   -0.20736E-03  6058   0.323E-02    0.251E-02
RMM:   3    -0.230585518639E+04   -0.17614E-05   -0.17386E-04  3002   0.105E-02    0.162E-02
RMM:   4    -0.230585518690E+04   -0.51183E-06   -0.27905E-05  2866   0.432E-03
 182 F= -.23262243E+04 E0= -.23262243E+04  d E =-.109995E-03  mag=     1.0000
       N       E                     dE             d eps       ncg     rms          rms(c)
DAV:   1    -0.230585515823E+04    0.28160E-04   -0.22225E-03  5056   0.494E-02    0.167E-02
RMM:   2    -0.230585517464E+04   -0.16411E-04   -0.17957E-04  3936   0.101E-02    0.112E-02
RMM:   3    -0.230585517518E+04   -0.53366E-06   -0.20684E-05  2787   0.537E-03
 183 F= -.23262243E+04 E0= -.23262243E+04  d E =-.106898E-03  mag=     1.0000
       N       E                     dE             d eps       ncg     rms          rms(c)
DAV:   1    -0.230585508719E+04    0.87450E-04   -0.26865E-02  4392   0.172E-01    0.550E-02
RMM:   2    -0.230585526340E+04   -0.17621E-03   -0.20061E-03  6004   0.325E-02    0.251E-02
RMM:   3    -0.230585526332E+04    0.74768E-07   -0.17290E-04  3054   0.112E-02    0.152E-02
RMM:   4    -0.230585526037E+04    0.29586E-05   -0.24966E-05  2867   0.416E-03
 184 F= -.23262244E+04 E0= -.23262244E+04  d E =-.985403E-04  mag=     1.0000
       N       E                     dE             d eps       ncg     rms          rms(c)
DAV:   1    -0.230585525329E+04    0.10030E-04   -0.42316E-04  5088   0.222E-02    0.883E-03
RMM:   2    -0.230585525651E+04   -0.32199E-05   -0.38491E-05  2861   0.512E-03
 185 F= -.23262244E+04 E0= -.23262244E+04  d E =-.964528E-04  mag=     1.0000
       N       E                     dE             d eps       ncg     rms          rms(c)
DAV:   1    -0.230585513278E+04    0.12051E-03   -0.25662E-02  4424   0.168E-01    0.518E-02
RMM:   2    -0.230585531566E+04   -0.18288E-03   -0.20408E-03  6179   0.335E-02    0.255E-02
RMM:   3    -0.230585531994E+04   -0.42829E-05   -0.18968E-04  3157   0.120E-02    0.179E-02
RMM:   4    -0.230585531865E+04    0.12910E-05   -0.24891E-05  2848   0.421E-03
 186 F= -.23262245E+04 E0= -.23262245E+04  d E =-.864150E-04  mag=     1.0000
       N       E                     dE             d eps       ncg     rms          rms(c)
DAV:   1    -0.230585531184E+04    0.81020E-05   -0.11188E-04  5352   0.120E-02    0.785E-03
RMM:   2    -0.230585531377E+04   -0.19349E-05   -0.15601E-05  2631   0.302E-03
 187 F= -.23262245E+04 E0= -.23262245E+04  d E =-.832012E-04  mag=     1.0000
       N       E                     dE             d eps       ncg     rms          rms(c)
DAV:   1    -0.230585516476E+04    0.14708E-03   -0.27117E-02  4456   0.173E-01    0.558E-02
RMM:   2    -0.230585534987E+04   -0.18512E-03   -0.20894E-03  6065   0.334E-02    0.254E-02
RMM:   3    -0.230585535266E+04   -0.27880E-05   -0.18685E-04  3149   0.125E-02    0.181E-02
RMM:   4    -0.230585535195E+04    0.71328E-06   -0.26330E-05  2846   0.433E-03
 188 F= -.23262246E+04 E0= -.23262246E+04  d E =-.909452E-04  mag=     1.0000
       N       E                     dE             d eps       ncg     rms          rms(c)
DAV:   1    -0.230585533862E+04    0.14042E-04   -0.30823E-04  5216   0.191E-02    0.941E-03
RMM:   2    -0.230585534206E+04   -0.34361E-05   -0.32300E-05  2850   0.443E-03
 189 F= -.23262246E+04 E0= -.23262246E+04  d E =-.869757E-04  mag=     1.0000
       N       E                     dE             d eps       ncg     rms          rms(c)
DAV:   1    -0.230585523201E+04    0.10661E-03   -0.18884E-02  4456   0.143E-01    0.438E-02
RMM:   2    -0.230585537871E+04   -0.14671E-03   -0.16287E-03  6180   0.291E-02    0.220E-02
RMM:   3    -0.230585538147E+04   -0.27601E-05   -0.14618E-04  2953   0.104E-02    0.144E-02
RMM:   4    -0.230585538055E+04    0.91939E-06   -0.18826E-05  2858   0.362E-03
 190 F= -.23262247E+04 E0= -.23262247E+04  d E =-.745222E-04  mag=     1.0000
       N       E                     dE             d eps       ncg     rms          rms(c)
DAV:   1    -0.230585536596E+04    0.15515E-04   -0.70584E-04  4992   0.280E-02    0.114E-02
RMM:   2    -0.230585537341E+04   -0.74563E-05   -0.68418E-05  3163   0.622E-03
 191 F= -.23262247E+04 E0= -.23262247E+04  d E =-.746031E-04  mag=     1.0000
       N       E                     dE             d eps       ncg     rms          rms(c)
DAV:   1    -0.230585529344E+04    0.72517E-04   -0.19902E-02  4424   0.146E-01    0.451E-02
RMM:   2    -0.230585545135E+04   -0.15791E-03   -0.17528E-03  6213   0.305E-02    0.222E-02
RMM:   3    -0.230585545603E+04   -0.46820E-05   -0.17385E-04  2966   0.107E-02    0.137E-02
RMM:   4    -0.230585545474E+04    0.12918E-05   -0.19675E-05  2864   0.354E-03
 192 F= -.23262248E+04 E0= -.23262248E+04  d E =-.800476E-04  mag=     1.0000
       N       E                     dE             d eps       ncg     rms          rms(c)
DAV:   1    -0.230585543672E+04    0.19309E-04   -0.22496E-03  4840   0.494E-02    0.169E-02
RMM:   2    -0.230585545598E+04   -0.19253E-04   -0.20617E-04  4148   0.106E-02    0.128E-02
RMM:   3    -0.230585545520E+04    0.77659E-06   -0.21334E-05  2804   0.522E-03
 193 F= -.23262248E+04 E0= -.23262248E+04  d E =-.800748E-04  mag=     1.0000
       N       E                     dE             d eps       ncg     rms          rms(c)
DAV:   1    -0.230585538622E+04    0.69760E-04   -0.16437E-02  4456   0.133E-01    0.395E-02
RMM:   2    -0.230585551845E+04   -0.13223E-03   -0.14571E-03  6132   0.264E-02    0.203E-02
RMM:   3    -0.230585552140E+04   -0.29539E-05   -0.12407E-04  2849   0.847E-03    0.130E-02
RMM:   4    -0.230585552062E+04    0.78340E-06   -0.16254E-05  2857   0.330E-03
 194 F= -.23262248E+04 E0= -.23262248E+04  d E =-.765921E-04  mag=     1.0000
       N       E                     dE             d eps       ncg     rms          rms(c)
DAV:   1    -0.230585547469E+04    0.46715E-04   -0.53246E-03  4496   0.756E-02    0.231E-02
RMM:   2    -0.230585551813E+04   -0.43440E-04   -0.47743E-04  5605   0.151E-02    0.137E-02
RMM:   3    -0.230585551937E+04   -0.12470E-05   -0.42994E-05  2832   0.594E-03
 195 F= -.23262248E+04 E0= -.23262248E+04  d E =-.818099E-04  mag=     1.0000
       N       E                     dE             d eps       ncg     rms          rms(c)
DAV:   1    -0.230585542838E+04    0.89745E-04   -0.15936E-02  4424   0.130E-01    0.396E-02
RMM:   2    -0.230585555736E+04   -0.12898E-03   -0.14291E-03  6037   0.255E-02    0.208E-02
RMM:   3    -0.230585556039E+04   -0.30290E-05   -0.12886E-04  2851   0.796E-03    0.143E-02
RMM:   4    -0.230585556054E+04   -0.14430E-06   -0.18280E-05  2842   0.327E-03
 196 F= -.23262249E+04 E0= -.23262249E+04  d E =-.829856E-04  mag=     1.0000
       N       E                     dE             d eps       ncg     rms          rms(c)
DAV:   1    -0.230585550828E+04    0.52113E-04   -0.42356E-03  4640   0.674E-02    0.213E-02
RMM:   2    -0.230585554230E+04   -0.34017E-04   -0.38389E-04  5119   0.134E-02    0.119E-02
RMM:   3    -0.230585554448E+04   -0.21828E-05   -0.40417E-05  2827   0.591E-03
 197 F= -.23262249E+04 E0= -.23262249E+04  d E =-.887965E-04  mag=     1.0000
       N       E                     dE             d eps       ncg     rms          rms(c)
DAV:   1    -0.230585549045E+04    0.51851E-04   -0.14680E-02  4456   0.126E-01    0.392E-02
RMM:   2    -0.230585560668E+04   -0.11624E-03   -0.12859E-03  6003   0.246E-02    0.210E-02
RMM:   3    -0.230585561088E+04   -0.41959E-05   -0.12579E-04  2865   0.836E-03    0.180E-02
RMM:   4    -0.230585560828E+04    0.25962E-05   -0.16317E-05  2833   0.348E-03
 198 F= -.23262250E+04 E0= -.23262250E+04  d E =-.893201E-04  mag=     1.0000
       N       E                     dE             d eps       ncg     rms          rms(c)
DAV:   1    -0.230585556202E+04    0.48857E-04   -0.47908E-03  4544   0.723E-02    0.227E-02
RMM:   2    -0.230585559959E+04   -0.37565E-04   -0.42558E-04  5349   0.143E-02    0.119E-02
RMM:   3    -0.230585560184E+04   -0.22514E-05   -0.45723E-05  2826   0.625E-03
 199 F= -.23262250E+04 E0= -.23262250E+04  d E =-.977232E-04  mag=     1.0000
       N       E                     dE             d eps       ncg     rms          rms(c)
DAV:   1    -0.230585555289E+04    0.46695E-04   -0.15886E-02  4424   0.132E-01    0.404E-02
RMM:   2    -0.230585568000E+04   -0.12710E-03   -0.14175E-03  5995   0.254E-02    0.208E-02
RMM:   3    -0.230585568363E+04   -0.36320E-05   -0.13299E-04  2862   0.822E-03    0.155E-02
RMM:   4    -0.230585568363E+04   -0.63155E-08   -0.18939E-05  2836   0.340E-03
 200 F= -.23262251E+04 E0= -.23262251E+04  d E =-.718652E-04  mag=     1.0000
       N       E                     dE             d eps       ncg     rms          rms(c)
DAV:   1    -0.230585567331E+04    0.10321E-04   -0.10675E-03  4992   0.344E-02    0.118E-02
RMM:   2    -0.230585568179E+04   -0.84825E-05   -0.10065E-04  3310   0.714E-03    0.663E-03
RMM:   3    -0.230585568247E+04   -0.67578E-06   -0.11552E-05  2667   0.426E-03
 201 F= -.23262251E+04 E0= -.23262251E+04  d E =-.680475E-04  mag=     1.0000
