       N       E                     dE             d eps       ncg     rms          rms(c)
DAV:   1     0.128958930519E+05    0.12896E+05   -0.83586E+05  4496   0.144E+03
DAV:   2    -0.106274319655E+04   -0.13959E+05   -0.13351E+05  5120   0.330E+02
DAV:   3    -0.247804637722E+04   -0.14153E+04   -0.14005E+04  5416   0.112E+02
DAV:   4    -0.252269754807E+04   -0.44651E+02   -0.44418E+02  6776   0.295E+01
DAV:   5    -0.252344119686E+04   -0.74365E+00   -0.74246E+00  6120   0.335E+00    0.170E+02
RMM:   6    -0.149432629094E+04    0.10291E+04   -0.19441E+03  4432   0.385E+01    0.731E+01
RMM:   7    -0.166767810980E+04   -0.17335E+03   -0.29179E+02  4974   0.141E+01    0.563E+01
RMM:   8    -0.170824423994E+04   -0.40566E+02   -0.86492E+01  5231   0.796E+00    0.467E+01
RMM:   9    -0.176650433008E+04   -0.58260E+02   -0.71814E+01  4987   0.724E+00    0.388E+01
RMM:  10    -0.186115653310E+04   -0.94652E+02   -0.57403E+01  5245   0.709E+00    0.371E+01
RMM:  11    -0.194369603514E+04   -0.82540E+02   -0.40879E+01  5209   0.578E+00    0.234E+01
RMM:  12    -0.203470765744E+04   -0.91012E+02   -0.34619E+01  4747   0.469E+00    0.163E+01
RMM:  13    -0.214184868751E+04   -0.10714E+03   -0.60199E+01  4701   0.584E+00    0.149E+01
RMM:  14    -0.222313746372E+04   -0.81289E+02   -0.54953E+01  4680   0.546E+00    0.116E+01
RMM:  15    -0.228087654402E+04   -0.57739E+02   -0.46085E+01  4658   0.506E+00    0.676E+00
RMM:  16    -0.230387602754E+04   -0.22999E+02   -0.20193E+01  4635   0.356E+00    0.381E+00
RMM:  17    -0.231421076338E+04   -0.10335E+02   -0.96674E+00  4659   0.210E+00    0.232E+00
RMM:  18    -0.231648483724E+04   -0.22741E+01   -0.16838E+00  4804   0.116E+00    0.151E+00
RMM:  19    -0.231779159627E+04   -0.13068E+01   -0.80588E-01  4797   0.551E-01    0.671E-01
RMM:  20    -0.231798879581E+04   -0.19720E+00   -0.13154E-01  4854   0.385E-01    0.609E-01
RMM:  21    -0.231805915064E+04   -0.70355E-01   -0.44386E-02  4701   0.136E-01    0.263E-01
RMM:  22    -0.231808620184E+04   -0.27051E-01   -0.14019E-02  4516   0.112E-01    0.170E-01
RMM:  23    -0.231810375166E+04   -0.17550E-01   -0.66556E-03  4612   0.645E-02    0.119E-01
RMM:  24    -0.231811751521E+04   -0.13764E-01   -0.51095E-03  4458   0.570E-02    0.724E-02
RMM:  25    -0.231812317363E+04   -0.56584E-02   -0.17639E-03  4800   0.361E-02    0.649E-02
RMM:  26    -0.231812792277E+04   -0.47491E-02   -0.14064E-03  4442   0.255E-02    0.290E-02
RMM:  27    -0.231813003005E+04   -0.21073E-02   -0.59059E-04  4104   0.206E-02    0.251E-02
RMM:  28    -0.231813087122E+04   -0.84116E-03   -0.26132E-04  3929   0.127E-02    0.960E-03
RMM:  29    -0.231813128042E+04   -0.40920E-03   -0.10837E-04  3687   0.101E-02    0.644E-03
RMM:  30    -0.231813144512E+04   -0.16471E-03   -0.44912E-05  3399   0.611E-03    0.331E-03
RMM:  31    -0.231813154096E+04   -0.95843E-04   -0.25157E-05  3158   0.516E-03    0.190E-03
RMM:  32    -0.231813156756E+04   -0.26597E-04   -0.12184E-05  2918   0.389E-03    0.117E-03
RMM:  33    -0.231813157287E+04   -0.53080E-05   -0.56824E-06  2619   0.296E-03
   1 F= -.23390152E+04 E0= -.23390152E+04  d E =-.233902E+04  mag=     7.0001
       N       E                     dE             d eps       ncg     rms          rms(c)
DAV:   1    -0.231916947068E+04   -0.10379E+01   -0.73730E+01  4824   0.321E+00    0.203E+00
RMM:   2    -0.231934038257E+04   -0.17091E+00   -0.26799E+00  5640   0.739E-01    0.151E+00
RMM:   3    -0.231933939050E+04    0.99207E-03   -0.26685E-01  5551   0.249E-01    0.178E+00
RMM:   4    -0.231930856014E+04    0.30830E-01   -0.60218E-02  5514   0.106E-01    0.554E-01
RMM:   5    -0.231930694133E+04    0.16188E-02   -0.35145E-02  4893   0.637E-02    0.393E-01
RMM:   6    -0.231930611885E+04    0.82248E-03   -0.56907E-03  5067   0.371E-02    0.309E-01
RMM:   7    -0.231930495920E+04    0.11597E-02   -0.14415E-03  4475   0.160E-02    0.831E-02
RMM:   8    -0.231930490621E+04    0.52993E-04   -0.54287E-04  3900   0.973E-03    0.413E-02
RMM:   9    -0.231930487561E+04    0.30592E-04   -0.74552E-05  3044   0.633E-03    0.197E-02
RMM:  10    -0.231930486990E+04    0.57096E-05   -0.56002E-05  3030   0.518E-03
   2 F= -.23401865E+04 E0= -.23401865E+04  d E =-.117130E+01  mag=     7.0000
       N       E                     dE             d eps       ncg     rms          rms(c)
DAV:   1    -0.231934353023E+04   -0.38655E-01   -0.37282E+00  4832   0.722E-01    0.460E-01
RMM:   2    -0.231935008849E+04   -0.65583E-02   -0.13205E-01  5880   0.147E-01    0.341E-01
RMM:   3    -0.231934984761E+04    0.24088E-03   -0.13662E-02  5226   0.517E-02    0.395E-01
RMM:   4    -0.231934822131E+04    0.16263E-02   -0.33310E-03  4397   0.226E-02    0.134E-01
RMM:   5    -0.231934800889E+04    0.21241E-03   -0.13051E-03  3953   0.138E-02    0.674E-02
RMM:   6    -0.231934801188E+04   -0.29850E-05   -0.24601E-04  3054   0.907E-03    0.810E-02
RMM:   7    -0.231934794347E+04    0.68408E-04   -0.82355E-05  2974   0.501E-03    0.195E-02
RMM:   8    -0.231934793890E+04    0.45674E-05   -0.17426E-05  2920   0.314E-03
   3 F= -.23402293E+04 E0= -.23402293E+04  d E =-.121409E+01  mag=     7.0000
       N       E                     dE             d eps       ncg     rms          rms(c)
DAV:   1    -0.231967053768E+04   -0.32259E+00   -0.18165E+01  4632   0.234E+00    0.121E+00
RMM:   2    -0.231976278270E+04   -0.92245E-01   -0.11692E+00  5813   0.492E-01    0.631E-01
RMM:   3    -0.231976979564E+04   -0.70129E-02   -0.11420E-01  5351   0.187E-01    0.540E-01
RMM:   4    -0.231976944846E+04    0.34718E-03   -0.14892E-02  5469   0.529E-02    0.459E-01
RMM:   5    -0.231976793333E+04    0.15151E-02   -0.40907E-03  4979   0.311E-02    0.159E-01
RMM:   6    -0.231976810680E+04   -0.17347E-03   -0.12676E-03  4495   0.178E-02    0.147E-01
RMM:   7    -0.231976795432E+04    0.15248E-03   -0.39529E-04  3504   0.110E-02    0.639E-02
RMM:   8    -0.231976792537E+04    0.28945E-04   -0.81189E-05  2955   0.575E-03    0.167E-02
RMM:   9    -0.231976792993E+04   -0.45600E-05   -0.24284E-05  2947   0.340E-03
   4 F= -.23406472E+04 E0= -.23406472E+04  d E =-.417913E+00  mag=     7.0000
       N       E                     dE             d eps       ncg     rms          rms(c)
DAV:   1    -0.231981561519E+04   -0.47690E-01   -0.11439E+01  4616   0.184E+00    0.963E-01
RMM:   2    -0.231987397007E+04   -0.58355E-01   -0.73481E-01  5840   0.379E-01    0.502E-01
RMM:   3    -0.231987803909E+04   -0.40690E-02   -0.67526E-02  5397   0.140E-01    0.409E-01
RMM:   4    -0.231987806833E+04   -0.29245E-04   -0.93880E-03  5344   0.416E-02    0.368E-01
RMM:   5    -0.231987711494E+04    0.95339E-03   -0.24786E-03  4885   0.249E-02    0.124E-01
RMM:   6    -0.231987720289E+04   -0.87950E-04   -0.66865E-04  4149   0.139E-02    0.964E-02
RMM:   7    -0.231987715934E+04    0.43554E-04   -0.21805E-04  3186   0.877E-03    0.563E-02
RMM:   8    -0.231987713648E+04    0.22864E-04   -0.49707E-05  2931   0.490E-03    0.144E-02
RMM:   9    -0.231987713925E+04   -0.27775E-05   -0.14677E-05  2916   0.290E-03
   5 F= -.23407551E+04 E0= -.23407551E+04  d E =-.525831E+00  mag=     7.0000
       N       E                     dE             d eps       ncg     rms          rms(c)
DAV:   1    -0.231986999957E+04    0.71369E-02   -0.16448E+01  4616   0.288E+00    0.134E+00
RMM:   2    -0.232002880100E+04   -0.15880E+00   -0.17233E+00  5815   0.568E-01    0.789E-01
RMM:   3    -0.232003676384E+04   -0.79628E-02   -0.16269E-01  5263   0.234E-01    0.650E-01
RMM:   4    -0.232003552070E+04    0.12431E-02   -0.20775E-02  5605   0.613E-02    0.454E-01
RMM:   5    -0.232003384378E+04    0.16769E-02   -0.84443E-03  5259   0.462E-02    0.300E-01
RMM:   6    -0.232003310151E+04    0.74227E-03   -0.19090E-03  5167   0.257E-02    0.128E-01
RMM:   7    -0.232003302731E+04    0.74196E-04   -0.48093E-04  3912   0.133E-02    0.863E-02
RMM:   8    -0.232003293482E+04    0.92489E-04   -0.10792E-04  3088   0.673E-03    0.265E-02
RMM:   9    -0.232003291578E+04    0.19042E-04   -0.48224E-05  3060   0.523E-03    0.108E-02
RMM:  10    -0.232003290972E+04    0.60584E-05   -0.17724E-05  2910   0.463E-03
   6 F= -.23409091E+04 E0= -.23409091E+04  d E =-.154029E+00  mag=     7.0000
       N       E                     dE             d eps       ncg     rms          rms(c)
DAV:   1    -0.232003370925E+04   -0.79347E-03   -0.29246E-01  4752   0.383E-01    0.180E-01
RMM:   2    -0.232003648082E+04   -0.27716E-02   -0.30077E-02  5920   0.786E-02    0.997E-02
RMM:   3    -0.232003665912E+04   -0.17830E-03   -0.31478E-03  4367   0.358E-02    0.684E-02
RMM:   4    -0.232003667621E+04   -0.17095E-04   -0.41801E-04  3269   0.918E-03    0.760E-02
RMM:   5    -0.232003661920E+04    0.57017E-04   -0.13161E-04  3078   0.707E-03    0.330E-02
RMM:   6    -0.232003661636E+04    0.28307E-05   -0.31635E-05  2910   0.491E-03
   7 F= -.23409131E+04 E0= -.23409131E+04  d E =-.157953E+00  mag=     7.0000
       N       E                     dE             d eps       ncg     rms          rms(c)
DAV:   1    -0.231997981505E+04    0.56804E-01   -0.82798E+00  4576   0.158E+00    0.105E+00
RMM:   2    -0.232013167331E+04   -0.15186E+00   -0.16187E+00  6295   0.406E-01    0.633E-01
RMM:   3    -0.232014370368E+04   -0.12030E-01   -0.15630E-01  5468   0.173E-01    0.458E-01
RMM:   4    -0.232014367976E+04    0.23919E-04   -0.15362E-02  4828   0.359E-02    0.298E-01
RMM:   5    -0.232014320380E+04    0.47596E-03   -0.27315E-03  4236   0.207E-02    0.215E-01
RMM:   6    -0.232014286209E+04    0.34171E-03   -0.10798E-03  4228   0.135E-02    0.939E-02
RMM:   7    -0.232014282408E+04    0.38005E-04   -0.22955E-04  3023   0.877E-03    0.642E-02
RMM:   8    -0.232014279771E+04    0.26375E-04   -0.70817E-05  2938   0.484E-03    0.235E-02
RMM:   9    -0.232014278944E+04    0.82658E-05   -0.20129E-05  2885   0.314E-03
   8 F= -.23410181E+04 E0= -.23410181E+04  d E =-.105025E+00  mag=     7.0000
       N       E                     dE             d eps       ncg     rms          rms(c)
DAV:   1    -0.232011728035E+04    0.25517E-01   -0.19603E+00  4776   0.760E-01    0.505E-01
RMM:   2    -0.232015241758E+04   -0.35137E-01   -0.37262E-01  6205   0.191E-01    0.292E-01
RMM:   3    -0.232015561877E+04   -0.32012E-02   -0.39506E-02  4821   0.906E-02    0.208E-01
RMM:   4    -0.232015565169E+04   -0.32923E-04   -0.38044E-03  3444   0.178E-02    0.147E-01
RMM:   5    -0.232015551376E+04    0.13793E-03   -0.60117E-04  3218   0.107E-02    0.938E-02
RMM:   6    -0.232015544910E+04    0.64659E-04   -0.22686E-04  3126   0.713E-03    0.429E-02
RMM:   7    -0.232015544193E+04    0.71674E-05   -0.51975E-05  2930   0.536E-03
   9 F= -.23410302E+04 E0= -.23410302E+04  d E =-.117139E+00  mag=     7.0000
       N       E                     dE             d eps       ncg     rms          rms(c)
DAV:   1    -0.232006462563E+04    0.90823E-01   -0.71971E+00  4496   0.160E+00    0.936E-01
RMM:   2    -0.232020450617E+04   -0.13988E+00   -0.14228E+00  6202   0.397E-01    0.609E-01
RMM:   3    -0.232021537437E+04   -0.10868E-01   -0.13789E-01  5656   0.169E-01    0.448E-01
RMM:   4    -0.232021501548E+04    0.35889E-03   -0.14331E-02  4923   0.349E-02    0.269E-01
RMM:   5    -0.232021446054E+04    0.55494E-03   -0.18196E-03  4194   0.188E-02    0.182E-01
RMM:   6    -0.232021431025E+04    0.15029E-03   -0.13714E-03  4677   0.155E-02    0.155E-01
RMM:   7    -0.232021417411E+04    0.13613E-03   -0.46972E-04  3282   0.114E-02    0.888E-02
RMM:   8    -0.232021410573E+04    0.68381E-04   -0.11359E-04  2963   0.569E-03    0.269E-02
RMM:   9    -0.232021409884E+04    0.68865E-05   -0.26631E-05  2889   0.378E-03
  10 F= -.23410876E+04 E0= -.23410876E+04  d E =-.574051E-01  mag=     7.0000
       N       E                     dE             d eps       ncg     rms          rms(c)
DAV:   1    -0.232020208984E+04    0.12016E-01   -0.78416E-01  4712   0.522E-01    0.313E-01
RMM:   2    -0.232021732963E+04   -0.15240E-01   -0.15501E-01  6168   0.129E-01    0.204E-01
RMM:   3    -0.232021856158E+04   -0.12320E-02   -0.15223E-02  4647   0.545E-02    0.147E-01
RMM:   4    -0.232021849986E+04    0.61729E-04   -0.15400E-03  3167   0.118E-02    0.886E-02
RMM:   5    -0.232021842759E+04    0.72265E-04   -0.19818E-04  3005   0.720E-03    0.506E-02
RMM:   6    -0.232021842435E+04    0.32445E-05   -0.12953E-04  3070   0.602E-03    0.468E-02
RMM:   7    -0.232021841147E+04    0.12876E-04   -0.43970E-05  2888   0.504E-03    0.238E-02
RMM:   8    -0.232021840699E+04    0.44789E-05   -0.99878E-06  2667   0.223E-03
  11 F= -.23410915E+04 E0= -.23410915E+04  d E =-.613171E-01  mag=     7.0000
       N       E                     dE             d eps       ncg     rms          rms(c)
DAV:   1    -0.232020769167E+04    0.10720E-01   -0.24912E+00  4480   0.873E-01    0.590E-01
RMM:   2    -0.232025964500E+04   -0.51953E-01   -0.53395E-01  6336   0.233E-01    0.416E-01
RMM:   3    -0.232026420636E+04   -0.45614E-02   -0.55307E-02  5321   0.998E-02    0.311E-01
RMM:   4    -0.232026386213E+04    0.34422E-03   -0.54913E-03  3654   0.213E-02    0.149E-01
RMM:   5    -0.232026372209E+04    0.14004E-03   -0.48746E-04  3109   0.941E-03    0.105E-01
RMM:   6    -0.232026369792E+04    0.24175E-04   -0.41929E-04  3258   0.917E-03    0.958E-02
RMM:   7    -0.232026363694E+04    0.60980E-04   -0.15247E-04  3038   0.684E-03    0.451E-02
RMM:   8    -0.232026362226E+04    0.14683E-04   -0.42510E-05  2869   0.437E-03    0.160E-02
RMM:   9    -0.232026362066E+04    0.15941E-05   -0.10083E-05  2684   0.272E-03
  12 F= -.23411358E+04 E0= -.23411358E+04  d E =-.442832E-01  mag=     7.0000
       N       E                     dE             d eps       ncg     rms          rms(c)
DAV:   1    -0.231983676062E+04    0.42686E+00   -0.22421E+01  4456   0.266E+00    0.176E+00
RMM:   2    -0.232031933040E+04   -0.48257E+00   -0.49694E+00  6461   0.742E-01    0.123E+00
RMM:   3    -0.232036122826E+04   -0.41898E-01   -0.53202E-01  5818   0.303E-01    0.945E-01
RMM:   4    -0.232035867389E+04    0.25544E-02   -0.50190E-02  5325   0.637E-02    0.486E-01
RMM:   5    -0.232035736015E+04    0.13137E-02   -0.49879E-03  4626   0.257E-02    0.363E-01
RMM:   6    -0.232035650468E+04    0.85547E-03   -0.43247E-03  4992   0.265E-02    0.255E-01
RMM:   7    -0.232035619903E+04    0.30565E-03   -0.15023E-03  4737   0.160E-02    0.160E-01
RMM:   8    -0.232035600093E+04    0.19810E-03   -0.51414E-04  3275   0.110E-02    0.559E-02
RMM:   9    -0.232035596851E+04    0.32417E-04   -0.90399E-05  2910   0.636E-03    0.189E-02
RMM:  10    -0.232035597487E+04   -0.63622E-05   -0.38959E-05  2917   0.431E-03
  13 F= -.23412255E+04 E0= -.23412255E+04  d E =-.133952E+00  mag=     7.0000
       N       E                     dE             d eps       ncg     rms          rms(c)
DAV:   1    -0.231819432524E+04    0.21616E+01   -0.90629E+01  4464   0.537E+00    0.349E+00
RMM:   2    -0.232020551638E+04   -0.20112E+01   -0.20732E+01  6454   0.156E+00    0.233E+00
RMM:   3    -0.232035463239E+04   -0.14912E+00   -0.20987E+00  5765   0.640E-01    0.166E+00
RMM:   4    -0.232035047350E+04    0.41589E-02   -0.17707E-01  5536   0.116E-01    0.940E-01
RMM:   5    -0.232034693979E+04    0.35337E-02   -0.20897E-02  5427   0.531E-02    0.790E-01
RMM:   6    -0.232034180529E+04    0.51345E-02   -0.15921E-02  5305   0.492E-02    0.418E-01
RMM:   7    -0.232034153665E+04    0.26864E-03   -0.45903E-03  5338   0.290E-02    0.312E-01
RMM:   8    -0.232034081408E+04    0.72257E-03   -0.21327E-03  4672   0.191E-02    0.122E-01
RMM:   9    -0.232034063846E+04    0.17563E-03   -0.30396E-04  3273   0.966E-03    0.469E-02
RMM:  10    -0.232034064359E+04   -0.51319E-05   -0.15428E-04  3180   0.726E-03    0.153E-02
RMM:  11    -0.232034066142E+04   -0.17835E-04   -0.34179E-05  2932   0.492E-03    0.103E-02
RMM:  12    -0.232034067777E+04   -0.16344E-04   -0.13868E-05  2890   0.378E-03    0.513E-03
RMM:  13    -0.232034068620E+04   -0.84361E-05   -0.70926E-06  2847   0.335E-03
  14 F= -.23412055E+04 E0= -.23412055E+04  d E =-.113994E+00  mag=     7.0000
       N       E                     dE             d eps       ncg     rms          rms(c)
DAV:   1    -0.231970438289E+04    0.63629E+00   -0.30554E+01  4472   0.318E+00    0.210E+00
RMM:   2    -0.232033288246E+04   -0.62850E+00   -0.64903E+00  6432   0.830E-01    0.151E+00
RMM:   3    -0.232038933872E+04   -0.56456E-01   -0.74613E-01  5840   0.373E-01    0.106E+00
RMM:   4    -0.232038569958E+04    0.36391E-02   -0.67124E-02  5507   0.746E-02    0.567E-01
RMM:   5    -0.232038409329E+04    0.16063E-02   -0.59903E-03  4810   0.293E-02    0.399E-01
RMM:   6    -0.232038325037E+04    0.84293E-03   -0.46633E-03  5051   0.286E-02    0.294E-01
RMM:   7    -0.232038268992E+04    0.56044E-03   -0.21561E-03  4873   0.192E-02    0.135E-01
RMM:   8    -0.232038254226E+04    0.14766E-03   -0.39518E-04  3237   0.103E-02    0.570E-02
RMM:   9    -0.232038251509E+04    0.27174E-04   -0.12520E-04  3006   0.663E-03    0.178E-02
RMM:  10    -0.232038252181E+04   -0.67226E-05   -0.57884E-05  2962   0.442E-03
  15 F= -.23412499E+04 E0= -.23412499E+04  d E =-.158404E+00  mag=     7.0000
       N       E                     dE             d eps       ncg     rms          rms(c)
DAV:   1    -0.232027679217E+04    0.10572E+00   -0.87950E+00  4456   0.188E+00    0.106E+00
RMM:   2    -0.232043013702E+04   -0.15334E+00   -0.15475E+00  6132   0.448E-01    0.976E-01
RMM:   3    -0.232043894480E+04   -0.88078E-02   -0.16430E-01  5759   0.191E-01    0.577E-01
RMM:   4    -0.232043739205E+04    0.15528E-02   -0.16294E-02  5252   0.419E-02    0.284E-01
RMM:   5    -0.232043699749E+04    0.39456E-03   -0.22640E-03  4909   0.223E-02    0.252E-01
RMM:   6    -0.232043654261E+04    0.45488E-03   -0.18016E-03  5051   0.199E-02    0.139E-01
RMM:   7    -0.232043640830E+04    0.13431E-03   -0.37460E-04  3995   0.119E-02    0.495E-02
RMM:   8    -0.232043638510E+04    0.23199E-04   -0.71783E-05  2956   0.619E-03    0.230E-02
RMM:   9    -0.232043637788E+04    0.72211E-05   -0.38209E-05  2901   0.463E-03
  16 F= -.23413027E+04 E0= -.23413027E+04  d E =-.527907E-01  mag=     7.0000
       N       E                     dE             d eps       ncg     rms          rms(c)
DAV:   1    -0.232034400304E+04    0.92382E-01   -0.58567E+00  4468   0.153E+00    0.865E-01
RMM:   2    -0.232044678034E+04   -0.10278E+00   -0.10399E+00  6100   0.362E-01    0.780E-01
RMM:   3    -0.232045314865E+04   -0.63683E-02   -0.11410E-01  5719   0.158E-01    0.465E-01
RMM:   4    -0.232045214953E+04    0.99912E-03   -0.11161E-02  5023   0.341E-02    0.228E-01
RMM:   5    -0.232045183797E+04    0.31156E-03   -0.14614E-03  4607   0.184E-02    0.198E-01
RMM:   6    -0.232045160087E+04    0.23710E-03   -0.11800E-03  4740   0.163E-02    0.124E-01
RMM:   7    -0.232045148231E+04    0.11856E-03   -0.26681E-04  3602   0.104E-02    0.392E-02
RMM:   8    -0.232045146929E+04    0.13015E-04   -0.48785E-05  2932   0.565E-03    0.189E-02
RMM:   9    -0.232045146611E+04    0.31853E-05   -0.27952E-05  2890   0.419E-03
  17 F= -.23413169E+04 E0= -.23413169E+04  d E =-.669666E-01  mag=     7.0000
       N       E                     dE             d eps       ncg     rms          rms(c)
DAV:   1    -0.232042603841E+04    0.25431E-01   -0.41130E+00  4496   0.109E+00    0.699E-01
RMM:   2    -0.232049438293E+04   -0.68345E-01   -0.68455E-01  6355   0.260E-01    0.716E-01
RMM:   3    -0.232049701110E+04   -0.26282E-02   -0.72019E-02  5618   0.112E-01    0.367E-01
RMM:   4    -0.232049652271E+04    0.48839E-03   -0.72818E-03  4110   0.247E-02    0.184E-01
RMM:   5    -0.232049638927E+04    0.13344E-03   -0.96464E-04  3582   0.126E-02    0.179E-01
RMM:   6    -0.232049618136E+04    0.20791E-03   -0.72910E-04  3469   0.116E-02    0.921E-02
RMM:   7    -0.232049612483E+04    0.56533E-04   -0.14180E-04  3011   0.706E-03    0.218E-02
RMM:   8    -0.232049612392E+04    0.90426E-06   -0.21369E-05  2889   0.384E-03
  18 F= -.23413609E+04 E0= -.23413609E+04  d E =-.440299E-01  mag=     7.0000
       N       E                     dE             d eps       ncg     rms          rms(c)
DAV:   1    -0.231992240319E+04    0.57372E+00   -0.36724E+01  4472   0.328E+00    0.213E+00
RMM:   2    -0.232057143062E+04   -0.64903E+00   -0.64932E+00  6447   0.821E-01    0.225E+00
RMM:   3    -0.232058409216E+04   -0.12662E-01   -0.71155E-01  5916   0.340E-01    0.967E-01
RMM:   4    -0.232058186697E+04    0.22252E-02   -0.68570E-02  5267   0.729E-02    0.561E-01
RMM:   5    -0.232058165019E+04    0.21678E-03   -0.98847E-03  5068   0.368E-02    0.636E-01
RMM:   6    -0.232057852191E+04    0.31283E-02   -0.66319E-03  5404   0.313E-02    0.246E-01
RMM:   7    -0.232057829396E+04    0.22795E-03   -0.19666E-03  4211   0.188E-02    0.122E-01
RMM:   8    -0.232057815529E+04    0.13868E-03   -0.34043E-04  3061   0.932E-03    0.511E-02
RMM:   9    -0.232057814363E+04    0.11660E-04   -0.10129E-04  3013   0.515E-03    0.284E-02
RMM:  10    -0.232057815375E+04   -0.10123E-04   -0.43449E-05  2907   0.469E-03    0.850E-03
RMM:  11    -0.232057816467E+04   -0.10920E-04   -0.12553E-05  2887   0.307E-03    0.543E-03
RMM:  12    -0.232057817275E+04   -0.80818E-05   -0.44706E-06  2781   0.247E-03
  19 F= -.23414405E+04 E0= -.23414405E+04  d E =-.123624E+00  mag=     7.0000
       N       E                     dE             d eps       ncg     rms          rms(c)
DAV:   1    -0.232045186581E+04    0.12630E+00   -0.77658E+00  4472   0.152E+00    0.957E-01
RMM:   2    -0.232058305266E+04   -0.13119E+00   -0.13268E+00  6438   0.367E-01    0.916E-01
RMM:   3    -0.232058936245E+04   -0.63098E-02   -0.14132E-01  5819   0.155E-01    0.492E-01
RMM:   4    -0.232058854618E+04    0.81627E-03   -0.14207E-02  4771   0.345E-02    0.266E-01
RMM:   5    -0.232058835866E+04    0.18752E-03   -0.19289E-03  4115   0.166E-02    0.270E-01
RMM:   6    -0.232058779432E+04    0.56434E-03   -0.14959E-03  4141   0.155E-02    0.114E-01
RMM:   7    -0.232058772708E+04    0.67242E-04   -0.26705E-04  3192   0.854E-03    0.383E-02
RMM:   8    -0.232058772249E+04    0.45859E-05   -0.42231E-05  2931   0.500E-03
  20 F= -.23414486E+04 E0= -.23414486E+04  d E =-.131712E+00  mag=     7.0000
       N       E                     dE             d eps       ncg     rms          rms(c)
DAV:   1    -0.232057295818E+04    0.14769E-01   -0.35454E+00  4512   0.134E+00    0.718E-01
RMM:   2    -0.232062889423E+04   -0.55936E-01   -0.58278E-01  5988   0.301E-01    0.596E-01
RMM:   3    -0.232063200182E+04   -0.31076E-02   -0.61542E-02  5675   0.125E-01    0.400E-01
RMM:   4    -0.232063101444E+04    0.98738E-03   -0.61674E-03  5254   0.306E-02    0.230E-01
RMM:   5    -0.232063082761E+04    0.18683E-03   -0.15062E-03  4747   0.190E-02    0.223E-01
RMM:   6    -0.232063044872E+04    0.37889E-03   -0.11828E-03  4853   0.176E-02    0.790E-02
RMM:   7    -0.232063040809E+04    0.40628E-04   -0.14689E-04  3257   0.965E-03    0.309E-02
RMM:   8    -0.232063040131E+04    0.67804E-05   -0.36417E-05  2941   0.456E-03
  21 F= -.23414909E+04 E0= -.23414909E+04  d E =-.422498E-01  mag=     7.0000
       N       E                     dE             d eps       ncg     rms          rms(c)
DAV:   1    -0.232056211987E+04    0.68288E-01   -0.52576E+00  4456   0.165E+00    0.870E-01
RMM:   2    -0.232064568505E+04   -0.83565E-01   -0.86663E-01  6006   0.375E-01    0.730E-01
RMM:   3    -0.232065019707E+04   -0.45120E-02   -0.93720E-02  5708   0.154E-01    0.470E-01
RMM:   4    -0.232064883362E+04    0.13635E-02   -0.86354E-03  5375   0.363E-02    0.281E-01
RMM:   5    -0.232064853450E+04    0.29911E-03   -0.21968E-03  5030   0.231E-02    0.267E-01
RMM:   6    -0.232064796367E+04    0.57083E-03   -0.17527E-03  5116   0.216E-02    0.870E-02
RMM:   7    -0.232064791230E+04    0.51370E-04   -0.20783E-04  3601   0.113E-02    0.353E-02
RMM:   8    -0.232064790309E+04    0.92120E-05   -0.51439E-05  2980   0.493E-03
  22 F= -.23415080E+04 E0= -.23415080E+04  d E =-.593745E-01  mag=     7.0000
       N       E                     dE             d eps       ncg     rms          rms(c)
DAV:   1    -0.232064603738E+04    0.18749E-02   -0.29053E+00  4580   0.145E+00    0.671E-01
RMM:   2    -0.232067862332E+04   -0.32586E-01   -0.33288E-01  5867   0.302E-01    0.609E-01
RMM:   3    -0.232067794237E+04    0.68096E-03   -0.31687E-02  5628   0.111E-01    0.403E-01
RMM:   4    -0.232067657833E+04    0.13640E-02   -0.39487E-03  4912   0.316E-02    0.155E-01
RMM:   5    -0.232067648212E+04    0.96208E-04   -0.12509E-03  5207   0.234E-02    0.166E-01
RMM:   6    -0.232067625899E+04    0.22313E-03   -0.74395E-04  5134   0.152E-02    0.729E-02
RMM:   7    -0.232067621946E+04    0.39528E-04   -0.85300E-05  3210   0.874E-03    0.195E-02
RMM:   8    -0.232067621709E+04    0.23727E-05   -0.22015E-05  2916   0.421E-03
  23 F= -.23415352E+04 E0= -.23415352E+04  d E =-.271921E-01  mag=     7.0000
       N       E                     dE             d eps       ncg     rms          rms(c)
DAV:   1    -0.232067444132E+04    0.17781E-02   -0.41496E-01  4744   0.546E-01    0.252E-01
RMM:   2    -0.232067917601E+04   -0.47347E-02   -0.48629E-02  5873   0.114E-01    0.224E-01
RMM:   3    -0.232067910902E+04    0.66988E-04   -0.45655E-03  5198   0.428E-02    0.154E-01
RMM:   4    -0.232067889882E+04    0.21020E-03   -0.57335E-04  4155   0.124E-02    0.586E-02
RMM:   5    -0.232067887302E+04    0.25793E-04   -0.17929E-04  3952   0.965E-03    0.556E-02
RMM:   6    -0.232067885141E+04    0.21611E-04   -0.10194E-04  3111   0.744E-03    0.321E-02
RMM:   7    -0.232067884322E+04    0.81936E-05   -0.16266E-05  2879   0.499E-03
  24 F= -.23415374E+04 E0= -.23415374E+04  d E =-.294157E-01  mag=     7.0000
       N       E                     dE             d eps       ncg     rms          rms(c)
DAV:   1    -0.232065958905E+04    0.19262E-01   -0.28915E+00  4468   0.115E+00    0.585E-01
RMM:   2    -0.232070590528E+04   -0.46316E-01   -0.46778E-01  6148   0.282E-01    0.607E-01
RMM:   3    -0.232070661337E+04   -0.70808E-03   -0.45478E-02  5824   0.100E-01    0.347E-01
RMM:   4    -0.232070600720E+04    0.60617E-03   -0.47439E-03  4874   0.251E-02    0.155E-01
RMM:   5    -0.232070584598E+04    0.16122E-03   -0.79814E-04  4448   0.156E-02    0.138E-01
RMM:   6    -0.232070572232E+04    0.12366E-03   -0.59580E-04  4329   0.124E-02    0.911E-02
RMM:   7    -0.232070566005E+04    0.62277E-04   -0.12597E-04  3027   0.812E-03    0.157E-02
RMM:   8    -0.232070565813E+04    0.19168E-05   -0.20453E-05  2911   0.404E-03
  25 F= -.23415623E+04 E0= -.23415623E+04  d E =-.249413E-01  mag=     7.0000
       N       E                     dE             d eps       ncg     rms          rms(c)
DAV:   1    -0.232066689937E+04    0.38761E-01   -0.31070E+00  4468   0.119E+00    0.605E-01
RMM:   2    -0.232071642271E+04   -0.49523E-01   -0.50052E-01  6156   0.293E-01    0.624E-01
RMM:   3    -0.232071730410E+04   -0.88139E-03   -0.48841E-02  5807   0.103E-01    0.360E-01
RMM:   4    -0.232071665831E+04    0.64579E-03   -0.51535E-03  4920   0.259E-02    0.163E-01
RMM:   5    -0.232071651436E+04    0.14394E-03   -0.89922E-04  4466   0.161E-02    0.155E-01
RMM:   6    -0.232071632482E+04    0.18955E-03   -0.65599E-04  4530   0.130E-02    0.884E-02
RMM:   7    -0.232071626990E+04    0.54914E-04   -0.13585E-04  3057   0.846E-03    0.167E-02
RMM:   8    -0.232071626713E+04    0.27716E-05   -0.21835E-05  2912   0.418E-03
  26 F= -.23415711E+04 E0= -.23415711E+04  d E =-.336980E-01  mag=     7.0000
       N       E                     dE             d eps       ncg     rms          rms(c)
DAV:   1    -0.232065878857E+04    0.57481E-01   -0.43678E+00  4452   0.155E+00    0.736E-01
RMM:   2    -0.232073107398E+04   -0.72285E-01   -0.73644E-01  6039   0.357E-01    0.732E-01
RMM:   3    -0.232073275157E+04   -0.16776E-02   -0.68659E-02  5822   0.131E-01    0.480E-01
RMM:   4    -0.232073114106E+04    0.16105E-02   -0.74063E-03  5192   0.335E-02    0.197E-01
RMM:   5    -0.232073071771E+04    0.42335E-03   -0.15524E-03  5089   0.223E-02    0.160E-01
RMM:   6    -0.232073060658E+04    0.11113E-03   -0.96889E-04  4904   0.160E-02    0.127E-01
RMM:   7    -0.232073046425E+04    0.14233E-03   -0.20569E-04  3488   0.949E-03    0.205E-02
RMM:   8    -0.232073046031E+04    0.39461E-05   -0.30470E-05  2931   0.520E-03
  27 F= -.23415835E+04 E0= -.23415835E+04  d E =-.123725E-01  mag=     7.0000
       N       E                     dE             d eps       ncg     rms          rms(c)
DAV:   1    -0.232072849988E+04    0.19644E-02   -0.13989E-01  4688   0.276E-01    0.131E-01
RMM:   2    -0.232073079550E+04   -0.22956E-02   -0.23167E-02  6104   0.636E-02    0.138E-01
RMM:   3    -0.232073082039E+04   -0.24888E-04   -0.21104E-03  3724   0.240E-02    0.812E-02
RMM:   4    -0.232073077270E+04    0.47688E-04   -0.23001E-04  3000   0.687E-03    0.341E-02
RMM:   5    -0.232073075929E+04    0.13414E-04   -0.52142E-05  2995   0.477E-03    0.279E-02
RMM:   6    -0.232073075642E+04    0.28697E-05   -0.31044E-05  2902   0.434E-03
  28 F= -.23415841E+04 E0= -.23415841E+04  d E =-.129826E-01  mag=     7.0000
       N       E                     dE             d eps       ncg     rms          rms(c)
DAV:   1    -0.232071161133E+04    0.19148E-01   -0.13654E+00  4496   0.924E-01    0.448E-01
RMM:   2    -0.232073799270E+04   -0.26381E-01   -0.27061E-01  5999   0.218E-01    0.369E-01
RMM:   3    -0.232073951775E+04   -0.15250E-02   -0.28476E-02  5607   0.913E-02    0.241E-01
RMM:   4    -0.232073919087E+04    0.32688E-03   -0.29235E-03  4698   0.210E-02    0.122E-01
RMM:   5    -0.232073902546E+04    0.16542E-03   -0.48184E-04  4259   0.138E-02    0.796E-02
RMM:   6    -0.232073902398E+04    0.14743E-05   -0.32854E-04  3775   0.105E-02    0.792E-02
RMM:   7    -0.232073896824E+04    0.55748E-04   -0.90387E-05  3050   0.759E-03    0.233E-02
RMM:   8    -0.232073896319E+04    0.50509E-05   -0.18401E-05  2907   0.410E-03
  29 F= -.23415922E+04 E0= -.23415922E+04  d E =-.815681E-02  mag=     7.0000
       N       E                     dE             d eps       ncg     rms          rms(c)
DAV:   1    -0.232073887231E+04    0.95930E-04   -0.56084E-03  5312   0.597E-02    0.286E-02
RMM:   2    -0.232073898035E+04   -0.10804E-03   -0.11428E-03  4316   0.153E-02    0.176E-02
RMM:   3    -0.232073898962E+04   -0.92721E-05   -0.12814E-04  2877   0.783E-03    0.129E-02
RMM:   4    -0.232073898947E+04    0.14811E-06   -0.13474E-05  2844   0.202E-03
  30 F= -.23415923E+04 E0= -.23415923E+04  d E =-.818131E-02  mag=     7.0000
       N       E                     dE             d eps       ncg     rms          rms(c)
DAV:   1    -0.232073043211E+04    0.85575E-02   -0.66239E-01  4544   0.680E-01    0.317E-01
RMM:   2    -0.232074231633E+04   -0.11884E-01   -0.12221E-01  5797   0.153E-01    0.222E-01
RMM:   3    -0.232074319848E+04   -0.88215E-03   -0.13195E-02  5273   0.662E-02    0.157E-01
RMM:   4    -0.232074304788E+04    0.15060E-03   -0.12472E-03  4142   0.149E-02    0.823E-02
RMM:   5    -0.232074296925E+04    0.78634E-04   -0.23163E-04  3922   0.107E-02    0.426E-02
RMM:   6    -0.232074296346E+04    0.57830E-05   -0.10341E-04  3503   0.783E-03    0.354E-02
RMM:   7    -0.232074295517E+04    0.82938E-05   -0.34022E-05  2902   0.618E-03
  31 F= -.23415968E+04 E0= -.23415968E+04  d E =-.451145E-02  mag=     7.0000
       N       E                     dE             d eps       ncg     rms          rms(c)
DAV:   1    -0.232074119478E+04    0.17687E-02   -0.97988E-02  4824   0.261E-01    0.125E-01
RMM:   2    -0.232074299364E+04   -0.17989E-02   -0.18449E-02  5827   0.597E-02    0.989E-02
RMM:   3    -0.232074310032E+04   -0.10669E-03   -0.19047E-03  3732   0.261E-02    0.672E-02
RMM:   4    -0.232074306690E+04    0.33422E-04   -0.19113E-04  2974   0.672E-03    0.307E-02
RMM:   5    -0.232074305423E+04    0.12669E-04   -0.36732E-05  2936   0.478E-03    0.145E-02
RMM:   6    -0.232074305386E+04    0.37572E-06   -0.16235E-05  2916   0.425E-03
  32 F= -.23415971E+04 E0= -.23415971E+04  d E =-.482962E-02  mag=     7.0000
       N       E                     dE             d eps       ncg     rms          rms(c)
DAV:   1    -0.232073186177E+04    0.11192E-01   -0.75137E-01  4496   0.647E-01    0.318E-01
RMM:   2    -0.232074621418E+04   -0.14352E-01   -0.14360E-01  6091   0.153E-01    0.283E-01
RMM:   3    -0.232074682651E+04   -0.61233E-03   -0.13293E-02  5432   0.594E-02    0.172E-01
RMM:   4    -0.232074664915E+04    0.17736E-03   -0.14194E-03  3537   0.134E-02    0.721E-02
RMM:   5    -0.232074658582E+04    0.63333E-04   -0.14465E-04  3231   0.793E-03    0.478E-02
RMM:   6    -0.232074659278E+04   -0.69646E-05   -0.12923E-04  3103   0.771E-03    0.537E-02
RMM:   7    -0.232074656556E+04    0.27224E-04   -0.43612E-05  2912   0.601E-03    0.121E-02
RMM:   8    -0.232074656437E+04    0.11859E-05   -0.73933E-06  2870   0.314E-03
  33 F= -.23416014E+04 E0= -.23416014E+04  d E =-.430606E-02  mag=     7.0000
       N       E                     dE             d eps       ncg     rms          rms(c)
DAV:   1    -0.232072666791E+04    0.19898E-01   -0.10598E+00  4496   0.766E-01    0.378E-01
RMM:   2    -0.232074691091E+04   -0.20243E-01   -0.20217E-01  6037   0.180E-01    0.344E-01
RMM:   3    -0.232074775705E+04   -0.84615E-03   -0.19064E-02  5492   0.685E-02    0.204E-01
RMM:   4    -0.232074750975E+04    0.24731E-03   -0.20049E-03  3903   0.156E-02    0.863E-02
RMM:   5    -0.232074742839E+04    0.81358E-04   -0.20274E-04  3383   0.893E-03    0.648E-02
RMM:   6    -0.232074742567E+04    0.27215E-05   -0.19382E-04  3226   0.861E-03    0.631E-02
RMM:   7    -0.232074738712E+04    0.38549E-04   -0.64428E-05  2961   0.676E-03    0.135E-02
RMM:   8    -0.232074738539E+04    0.17328E-05   -0.10685E-05  2891   0.390E-03
  34 F= -.23416032E+04 E0= -.23416032E+04  d E =-.611633E-02  mag=     7.0000
       N       E                     dE             d eps       ncg     rms          rms(c)
DAV:   1    -0.232073579122E+04    0.11596E-01   -0.61891E-01  4496   0.557E-01    0.311E-01
RMM:   2    -0.232075060192E+04   -0.14811E-01   -0.14515E-01  6315   0.148E-01    0.333E-01
RMM:   3    -0.232075075583E+04   -0.15391E-03   -0.12915E-02  5237   0.538E-02    0.150E-01
RMM:   4    -0.232075067733E+04    0.78499E-04   -0.14918E-03  3349   0.120E-02    0.642E-02
RMM:   5    -0.232075062732E+04    0.50014E-04   -0.82123E-05  3009   0.603E-03    0.471E-02
RMM:   6    -0.232075062738E+04   -0.63446E-07   -0.12786E-04  3019   0.703E-03    0.492E-02
RMM:   7    -0.232075060584E+04    0.21547E-04   -0.39074E-05  2901   0.523E-03    0.110E-02
RMM:   8    -0.232075060463E+04    0.12071E-05   -0.48795E-06  2768   0.251E-03
  35 F= -.23416072E+04 E0= -.23416072E+04  d E =-.394992E-02  mag=     7.0000
       N       E                     dE             d eps       ncg     rms          rms(c)
DAV:   1    -0.232067065323E+04    0.79953E-01   -0.34176E+00  4472   0.131E+00    0.734E-01
RMM:   2    -0.232075275223E+04   -0.82099E-01   -0.80381E-01  6255   0.349E-01    0.803E-01
RMM:   3    -0.232075336921E+04   -0.61698E-03   -0.73156E-02  5824   0.127E-01    0.351E-01
RMM:   4    -0.232075298462E+04    0.38459E-03   -0.82703E-03  4881   0.274E-02    0.154E-01
RMM:   5    -0.232075274036E+04    0.24426E-03   -0.50797E-04  3998   0.128E-02    0.127E-01
RMM:   6    -0.232075272038E+04    0.19980E-04   -0.60057E-04  3888   0.127E-02    0.124E-01
RMM:   7    -0.232075258082E+04    0.13956E-03   -0.31467E-04  3626   0.109E-02    0.264E-02
RMM:   8    -0.232075257311E+04    0.77010E-05   -0.28442E-05  2886   0.532E-03
  36 F= -.23416109E+04 E0= -.23416109E+04  d E =-.765467E-02  mag=     7.0000
       N       E                     dE             d eps       ncg     rms          rms(c)
DAV:   1    -0.232074613044E+04    0.64504E-02   -0.33528E-01  4608   0.391E-01    0.236E-01
RMM:   2    -0.232075499862E+04   -0.88682E-02   -0.86038E-02  6436   0.107E-01    0.270E-01
RMM:   3    -0.232075499123E+04    0.73873E-05   -0.76554E-03  4531   0.393E-02    0.105E-01
RMM:   4    -0.232075497962E+04    0.11607E-04   -0.88818E-04  3120   0.900E-03    0.453E-02
RMM:   5    -0.232075495996E+04    0.19664E-04   -0.37824E-05  2896   0.389E-03    0.358E-02
RMM:   6    -0.232075495995E+04    0.11671E-07   -0.69381E-05  2947   0.460E-03
  37 F= -.23416137E+04 E0= -.23416137E+04  d E =-.281635E-02  mag=     7.0000
       N       E                     dE             d eps       ncg     rms          rms(c)
DAV:   1    -0.232067989249E+04    0.75067E-01   -0.30128E+00  4472   0.117E+00    0.707E-01
RMM:   2    -0.232075992839E+04   -0.80036E-01   -0.77730E-01  6430   0.323E-01    0.806E-01
RMM:   3    -0.232075991674E+04    0.11644E-04   -0.70766E-02  5768   0.120E-01    0.313E-01
RMM:   4    -0.232075985768E+04    0.59065E-04   -0.81440E-03  4373   0.255E-02    0.138E-01
RMM:   5    -0.232075964658E+04    0.21109E-03   -0.34759E-04  3520   0.100E-02    0.106E-01
RMM:   6    -0.232075955723E+04    0.89357E-04   -0.74232E-04  4086   0.149E-02    0.536E-02
RMM:   7    -0.232075952533E+04    0.31897E-04   -0.53105E-05  2964   0.623E-03    0.135E-02
RMM:   8    -0.232075952546E+04   -0.13092E-06   -0.11420E-05  2870   0.254E-03
  38 F= -.23416195E+04 E0= -.23416195E+04  d E =-.863540E-02  mag=     7.0000
       N       E                     dE             d eps       ncg     rms          rms(c)
DAV:   1    -0.232043581629E+04    0.32371E+00   -0.12065E+01  4472   0.234E+00    0.142E+00
RMM:   2    -0.232075949612E+04   -0.32368E+00   -0.31520E+00  6473   0.660E-01    0.161E+00
RMM:   3    -0.232075917680E+04    0.31932E-03   -0.29185E-01  5938   0.237E-01    0.616E-01
RMM:   4    -0.232075918771E+04   -0.10904E-04   -0.32783E-02  5192   0.503E-02    0.283E-01
RMM:   5    -0.232075833334E+04    0.85436E-03   -0.15691E-03  4604   0.192E-02    0.230E-01
RMM:   6    -0.232075824841E+04    0.84929E-04   -0.23487E-03  4662   0.237E-02    0.230E-01
RMM:   7    -0.232075785148E+04    0.39694E-03   -0.10421E-03  4388   0.157E-02    0.860E-02
RMM:   8    -0.232075776934E+04    0.82132E-04   -0.10127E-04  2923   0.666E-03    0.254E-02
RMM:   9    -0.232075776907E+04    0.27200E-06   -0.25106E-05  2924   0.333E-03
  39 F= -.23416200E+04 E0= -.23416200E+04  d E =-.916864E-02  mag=     7.0000
       N       E                     dE             d eps       ncg     rms          rms(c)
DAV:   1    -0.232069280519E+04    0.64964E-01   -0.25869E+00  4472   0.108E+00    0.642E-01
RMM:   2    -0.232075951781E+04   -0.66713E-01   -0.65342E-01  6469   0.292E-01    0.657E-01
RMM:   3    -0.232076104938E+04   -0.15316E-02   -0.58973E-02  5796   0.106E-01    0.299E-01
RMM:   4    -0.232076069590E+04    0.35347E-03   -0.65398E-03  4218   0.235E-02    0.128E-01
RMM:   5    -0.232076055614E+04    0.13976E-03   -0.30657E-04  3296   0.949E-03    0.103E-01
RMM:   6    -0.232076053482E+04    0.21320E-04   -0.37276E-04  3368   0.992E-03    0.105E-01
RMM:   7    -0.232076044467E+04    0.90147E-04   -0.21645E-04  3141   0.886E-03    0.179E-02
RMM:   8    -0.232076044186E+04    0.28166E-05   -0.23416E-05  2898   0.466E-03
  40 F= -.23416217E+04 E0= -.23416217E+04  d E =-.108235E-01  mag=     7.0000
       N       E                     dE             d eps       ncg     rms          rms(c)
DAV:   1    -0.232072547224E+04    0.34972E-01   -0.14553E+00  4504   0.836E-01    0.492E-01
RMM:   2    -0.232076419987E+04   -0.38728E-01   -0.37887E-01  6339   0.227E-01    0.518E-01
RMM:   3    -0.232076481137E+04   -0.61151E-03   -0.34470E-02  5643   0.871E-02    0.223E-01
RMM:   4    -0.232076469995E+04    0.11143E-03   -0.38420E-03  3913   0.185E-02    0.964E-02
RMM:   5    -0.232076459402E+04    0.10592E-03   -0.16469E-04  3179   0.801E-03    0.704E-02
RMM:   6    -0.232076455198E+04    0.42044E-04   -0.31358E-04  3816   0.108E-02    0.436E-02
RMM:   7    -0.232076453777E+04    0.14207E-04   -0.51995E-05  2939   0.619E-03    0.215E-02
RMM:   8    -0.232076453390E+04    0.38752E-05   -0.88433E-06  2796   0.259E-03
  41 F= -.23416267E+04 E0= -.23416267E+04  d E =-.502332E-02  mag=     7.0000
       N       E                     dE             d eps       ncg     rms          rms(c)
DAV:   1    -0.232067692497E+04    0.87613E-01   -0.32973E+00  4480   0.126E+00    0.747E-01
RMM:   2    -0.232076576208E+04   -0.88837E-01   -0.86908E-01  6300   0.345E-01    0.808E-01
RMM:   3    -0.232076660709E+04   -0.84500E-03   -0.79288E-02  5777   0.130E-01    0.336E-01
RMM:   4    -0.232076642986E+04    0.17723E-03   -0.89139E-03  4769   0.276E-02    0.148E-01
RMM:   5    -0.232076619564E+04    0.23422E-03   -0.42078E-04  3756   0.115E-02    0.114E-01
RMM:   6    -0.232076618373E+04    0.11904E-04   -0.59956E-04  4024   0.135E-02    0.123E-01
RMM:   7    -0.232076605230E+04    0.13143E-03   -0.27658E-04  3402   0.102E-02    0.322E-02
RMM:   8    -0.232076604246E+04    0.98429E-05   -0.29060E-05  2893   0.504E-03
  42 F= -.23416295E+04 E0= -.23416295E+04  d E =-.781236E-02  mag=     7.0000
       N       E                     dE             d eps       ncg     rms          rms(c)
DAV:   1    -0.232073918646E+04    0.26866E-01   -0.11685E+00  4512   0.765E-01    0.437E-01
RMM:   2    -0.232076906345E+04   -0.29877E-01   -0.29438E-01  6254   0.199E-01    0.437E-01
RMM:   3    -0.232076974610E+04   -0.68264E-03   -0.26117E-02  5564   0.744E-02    0.206E-01
RMM:   4    -0.232076958875E+04    0.15734E-03   -0.29927E-03  3762   0.166E-02    0.851E-02
RMM:   5    -0.232076951090E+04    0.77854E-04   -0.14925E-04  3110   0.770E-03    0.625E-02
RMM:   6    -0.232076951282E+04   -0.19244E-05   -0.18819E-04  3239   0.849E-03    0.708E-02
RMM:   7    -0.232076946903E+04    0.43799E-04   -0.79797E-05  2940   0.692E-03    0.133E-02
RMM:   8    -0.232076946874E+04    0.28708E-06   -0.10954E-05  2882   0.365E-03
  43 F= -.23416336E+04 E0= -.23416336E+04  d E =-.414469E-02  mag=     7.0000
       N       E                     dE             d eps       ncg     rms          rms(c)
DAV:   1    -0.232068811567E+04    0.81353E-01   -0.31549E+00  4484   0.125E+00    0.718E-01
RMM:   2    -0.232076967310E+04   -0.81557E-01   -0.80555E-01  6222   0.326E-01    0.714E-01
RMM:   3    -0.232077198301E+04   -0.23099E-02   -0.75098E-02  5783   0.126E-01    0.347E-01
RMM:   4    -0.232077155768E+04    0.42533E-03   -0.82053E-03  4805   0.272E-02    0.147E-01
RMM:   5    -0.232077136682E+04    0.19087E-03   -0.48252E-04  3607   0.119E-02    0.122E-01
RMM:   6    -0.232077129190E+04    0.74915E-04   -0.42241E-04  3837   0.112E-02    0.107E-01
RMM:   7    -0.232077118391E+04    0.10799E-03   -0.30521E-04  3863   0.109E-02    0.210E-02
RMM:   8    -0.232077118242E+04    0.14934E-05   -0.32768E-05  2928   0.542E-03
  44 F= -.23416364E+04 E0= -.23416364E+04  d E =-.692436E-02  mag=     7.0000
       N       E                     dE             d eps       ncg     rms          rms(c)
DAV:   1    -0.232072832802E+04    0.42856E-01   -0.19636E+00  4484   0.933E-01    0.534E-01
RMM:   2    -0.232077454734E+04   -0.46219E-01   -0.45958E-01  6226   0.237E-01    0.500E-01
RMM:   3    -0.232077639874E+04   -0.18514E-02   -0.41901E-02  5617   0.913E-02    0.269E-01
RMM:   4    -0.232077602898E+04    0.36977E-03   -0.46530E-03  3982   0.198E-02    0.115E-01
RMM:   5    -0.232077591609E+04    0.11289E-03   -0.29435E-04  3108   0.887E-03    0.947E-02
RMM:   6    -0.232077587525E+04    0.40841E-04   -0.27400E-04  3138   0.892E-03    0.814E-02
RMM:   7    -0.232077581976E+04    0.55490E-04   -0.15102E-04  3092   0.796E-03    0.140E-02
RMM:   8    -0.232077582066E+04   -0.90781E-06   -0.19894E-05  2922   0.461E-03
  45 F= -.23416419E+04 E0= -.23416419E+04  d E =-.544436E-02  mag=     7.0000
       N       E                     dE             d eps       ncg     rms          rms(c)
DAV:   1    -0.232069999772E+04    0.75822E-01   -0.31891E+00  4456   0.119E+00    0.678E-01
RMM:   2    -0.232077499810E+04   -0.75000E-01   -0.74698E-01  6214   0.304E-01    0.626E-01
RMM:   3    -0.232077847679E+04   -0.34787E-02   -0.69436E-02  5747   0.116E-01    0.351E-01
RMM:   4    -0.232077782312E+04    0.65368E-03   -0.76036E-03  4577   0.251E-02    0.152E-01
RMM:   5    -0.232077764752E+04    0.17559E-03   -0.49673E-04  3278   0.108E-02    0.128E-01
RMM:   6    -0.232077753467E+04    0.11285E-03   -0.44383E-04  3551   0.109E-02    0.956E-02
RMM:   7    -0.232077745630E+04    0.78371E-04   -0.24986E-04  3444   0.953E-03    0.189E-02
RMM:   8    -0.232077745718E+04   -0.87767E-06   -0.28646E-05  2940   0.523E-03
  46 F= -.23416445E+04 E0= -.23416445E+04  d E =-.802857E-02  mag=     7.0000
       N       E                     dE             d eps       ncg     rms          rms(c)
DAV:   1    -0.232073489890E+04    0.42557E-01   -0.20130E+00  4532   0.101E+00    0.534E-01
RMM:   2    -0.232077808981E+04   -0.43191E-01   -0.43108E-01  6132   0.243E-01    0.498E-01
RMM:   3    -0.232077962025E+04   -0.15304E-02   -0.38472E-02  5672   0.930E-02    0.270E-01
RMM:   4    -0.232077921686E+04    0.40340E-03   -0.44957E-03  4414   0.206E-02    0.121E-01
RMM:   5    -0.232077909374E+04    0.12311E-03   -0.33959E-04  3255   0.102E-02    0.104E-01
RMM:   6    -0.232077902873E+04    0.65009E-04   -0.33941E-04  3605   0.102E-02    0.772E-02
RMM:   7    -0.232077897948E+04    0.49257E-04   -0.14485E-04  3136   0.829E-03    0.144E-02
RMM:   8    -0.232077897857E+04    0.90238E-06   -0.19709E-05  2911   0.481E-03
  47 F= -.23416469E+04 E0= -.23416469E+04  d E =-.246556E-02  mag=     7.0000
       N       E                     dE             d eps       ncg     rms          rms(c)
DAV:   1    -0.232077862876E+04    0.35072E-03   -0.22423E-02  4904   0.106E-01    0.562E-02
RMM:   2    -0.232077910641E+04   -0.47766E-03   -0.47329E-03  5351   0.265E-02    0.524E-02
RMM:   3    -0.232077912095E+04   -0.14534E-04   -0.41530E-04  2902   0.106E-02    0.274E-02
RMM:   4    -0.232077911614E+04    0.48087E-05   -0.47926E-05  2927   0.314E-03
  48 F= -.23416470E+04 E0= -.23416470E+04  d E =-.250643E-02  mag=     7.0000
       N       E                     dE             d eps       ncg     rms          rms(c)
DAV:   1    -0.232076569718E+04    0.13424E-01   -0.67824E-01  4512   0.629E-01    0.323E-01
RMM:   2    -0.232078064717E+04   -0.14950E-01   -0.14678E-01  6092   0.151E-01    0.344E-01
RMM:   3    -0.232078072691E+04   -0.79738E-04   -0.13010E-02  5290   0.581E-02    0.148E-01
RMM:   4    -0.232078063039E+04    0.96518E-04   -0.14935E-03  3550   0.130E-02    0.674E-02
RMM:   5    -0.232078057914E+04    0.51250E-04   -0.11334E-04  3091   0.740E-03    0.534E-02
RMM:   6    -0.232078057748E+04    0.16570E-05   -0.11812E-04  2985   0.742E-03    0.542E-02
RMM:   7    -0.232078055175E+04    0.25729E-04   -0.55088E-05  2915   0.621E-03    0.129E-02
RMM:   8    -0.232078055055E+04    0.12023E-05   -0.82824E-06  2865   0.368E-03
  49 F= -.23416489E+04 E0= -.23416489E+04  d E =-.197309E-02  mag=     7.0000
       N       E                     dE             d eps       ncg     rms          rms(c)
DAV:   1    -0.232076153578E+04    0.19016E-01   -0.83936E-01  4484   0.701E-01    0.356E-01
RMM:   2    -0.232078009123E+04   -0.18555E-01   -0.18232E-01  6071   0.168E-01    0.377E-01
RMM:   3    -0.232078020731E+04   -0.11608E-03   -0.16045E-02  5381   0.623E-02    0.165E-01
RMM:   4    -0.232078009120E+04    0.11611E-03   -0.18629E-03  3799   0.143E-02    0.782E-02
RMM:   5    -0.232078003282E+04    0.58377E-04   -0.15547E-04  3170   0.828E-03    0.669E-02
RMM:   6    -0.232078001826E+04    0.14560E-04   -0.14799E-04  3064   0.794E-03    0.575E-02
RMM:   7    -0.232077998913E+04    0.29132E-04   -0.70987E-05  2930   0.687E-03    0.140E-02
RMM:   8    -0.232077998789E+04    0.12434E-05   -0.10601E-05  2872   0.423E-03
  50 F= -.23416490E+04 E0= -.23416490E+04  d E =-.199630E-02  mag=     7.0000
       N       E                     dE             d eps       ncg     rms          rms(c)
DAV:   1    -0.232077668960E+04    0.32995E-02   -0.17528E-01  4512   0.320E-01    0.161E-01
RMM:   2    -0.232078052556E+04   -0.38360E-02   -0.37786E-02  6157   0.763E-02    0.160E-01
RMM:   3    -0.232078058679E+04   -0.61223E-04   -0.32553E-03  3836   0.291E-02    0.745E-02
RMM:   4    -0.232078055371E+04    0.33078E-04   -0.37131E-04  2979   0.734E-03    0.351E-02
RMM:   5    -0.232078053893E+04    0.14777E-04   -0.32100E-05  2905   0.435E-03    0.250E-02
RMM:   6    -0.232078054024E+04   -0.13105E-05   -0.33712E-05  2895   0.435E-03
  51 F= -.23416492E+04 E0= -.23416492E+04  d E =-.228284E-02  mag=     7.0000
       N       E                     dE             d eps       ncg     rms          rms(c)
DAV:   1    -0.232077393032E+04    0.66086E-02   -0.36320E-01  4480   0.471E-01    0.235E-01
RMM:   2    -0.232078201733E+04   -0.80870E-02   -0.79173E-02  6261   0.113E-01    0.252E-01
RMM:   3    -0.232078207246E+04   -0.55128E-04   -0.71456E-03  4799   0.421E-02    0.105E-01
RMM:   4    -0.232078202525E+04    0.47216E-04   -0.79760E-04  3093   0.956E-03    0.498E-02
RMM:   5    -0.232078199097E+04    0.34277E-04   -0.57355E-05  2966   0.552E-03    0.355E-02
RMM:   6    -0.232078198068E+04    0.10289E-04   -0.87246E-05  3001   0.655E-03    0.152E-02
RMM:   7    -0.232078197820E+04    0.24791E-05   -0.90840E-06  2872   0.419E-03
  52 F= -.23416510E+04 E0= -.23416510E+04  d E =-.171221E-02  mag=     7.0000
       N       E                     dE             d eps       ncg     rms          rms(c)
DAV:   1    -0.232072491738E+04    0.57063E-01   -0.25999E+00  4456   0.126E+00    0.635E-01
RMM:   2    -0.232078339491E+04   -0.58478E-01   -0.57233E-01  6157   0.300E-01    0.703E-01
RMM:   3    -0.232078333084E+04    0.64068E-04   -0.51568E-02  5733   0.115E-01    0.285E-01
RMM:   4    -0.232078304783E+04    0.28301E-03   -0.57912E-03  4812   0.241E-02    0.136E-01
RMM:   5    -0.232078283003E+04    0.21780E-03   -0.44455E-04  4181   0.133E-02    0.107E-01
RMM:   6    -0.232078282737E+04    0.26643E-05   -0.51775E-04  4139   0.128E-02    0.109E-01
RMM:   7    -0.232078272384E+04    0.10353E-03   -0.21252E-04  3256   0.969E-03    0.298E-02
RMM:   8    -0.232078271590E+04    0.79407E-05   -0.25327E-05  2886   0.474E-03
  53 F= -.23416524E+04 E0= -.23416524E+04  d E =-.315183E-02  mag=     7.0000
       N       E                     dE             d eps       ncg     rms          rms(c)
DAV:   1    -0.232077636809E+04    0.63558E-02   -0.36823E-01  4512   0.450E-01    0.229E-01
RMM:   2    -0.232078413794E+04   -0.77698E-02   -0.75897E-02  6343   0.107E-01    0.263E-01
RMM:   3    -0.232078409208E+04    0.45852E-04   -0.66554E-03  4498   0.380E-02    0.995E-02
RMM:   4    -0.232078405753E+04    0.34553E-04   -0.76303E-04  3079   0.900E-03    0.500E-02
RMM:   5    -0.232078402988E+04    0.27647E-04   -0.55613E-05  2946   0.499E-03    0.386E-02
RMM:   6    -0.232078403097E+04   -0.10821E-05   -0.76291E-05  2922   0.543E-03
  54 F= -.23416539E+04 E0= -.23416539E+04  d E =-.151733E-02  mag=     7.0000
       N       E                     dE             d eps       ncg     rms          rms(c)
DAV:   1    -0.232071619347E+04    0.67836E-01   -0.33036E+00  4456   0.135E+00    0.686E-01
RMM:   2    -0.232078616001E+04   -0.69967E-01   -0.68419E-01  6216   0.321E-01    0.786E-01
RMM:   3    -0.232078589543E+04    0.26459E-03   -0.60473E-02  5766   0.117E-01    0.305E-01
RMM:   4    -0.232078560013E+04    0.29530E-03   -0.69747E-03  4672   0.251E-02    0.153E-01
RMM:   5    -0.232078538239E+04    0.21774E-03   -0.55738E-04  3986   0.129E-02    0.136E-01
RMM:   6    -0.232078532837E+04    0.54024E-04   -0.58393E-04  3756   0.126E-02    0.115E-01
RMM:   7    -0.232078522422E+04    0.10414E-03   -0.31596E-04  3399   0.103E-02    0.335E-02
RMM:   8    -0.232078521296E+04    0.11267E-04   -0.30018E-05  2898   0.534E-03    0.146E-02
RMM:   9    -0.232078521262E+04    0.33686E-06   -0.11734E-05  2893   0.261E-03
  55 F= -.23416557E+04 E0= -.23416557E+04  d E =-.326734E-02  mag=     7.0000
       N       E                     dE             d eps       ncg     rms          rms(c)
DAV:   1    -0.232077880337E+04    0.64096E-02   -0.45328E-01  4512   0.544E-01    0.254E-01
RMM:   2    -0.232078701015E+04   -0.82068E-02   -0.80931E-02  6038   0.121E-01    0.261E-01
RMM:   3    -0.232078704850E+04   -0.38342E-04   -0.70764E-03  4958   0.455E-02    0.119E-01
RMM:   4    -0.232078695613E+04    0.92366E-04   -0.82012E-04  3315   0.107E-02    0.563E-02
RMM:   5    -0.232078691568E+04    0.40447E-04   -0.96601E-05  3136   0.722E-03    0.432E-02
RMM:   6    -0.232078691778E+04   -0.20963E-05   -0.90154E-05  2933   0.694E-03
  56 F= -.23416576E+04 E0= -.23416576E+04  d E =-.196702E-02  mag=     7.0000
       N       E                     dE             d eps       ncg     rms          rms(c)
DAV:   1    -0.232078188226E+04    0.50334E-02   -0.28947E-01  4512   0.435E-01    0.206E-01
RMM:   2    -0.232078716380E+04   -0.52815E-02   -0.52030E-02  6154   0.968E-02    0.217E-01
RMM:   3    -0.232078715316E+04    0.10639E-04   -0.44871E-03  4575   0.348E-02    0.963E-02
RMM:   4    -0.232078709276E+04    0.60400E-04   -0.52471E-04  3041   0.877E-03    0.470E-02
RMM:   5    -0.232078707945E+04    0.13320E-04   -0.68384E-05  2947   0.563E-03    0.485E-02
RMM:   6    -0.232078706300E+04    0.16446E-04   -0.56184E-05  2894   0.558E-03    0.258E-02
RMM:   7    -0.232078705781E+04    0.51866E-05   -0.21838E-05  2892   0.450E-03
  57 F= -.23416580E+04 E0= -.23416580E+04  d E =-.231456E-02  mag=     7.0000
       N       E                     dE             d eps       ncg     rms          rms(c)
DAV:   1    -0.232078322875E+04    0.38342E-02   -0.24438E-01  4576   0.398E-01    0.187E-01
RMM:   2    -0.232078810890E+04   -0.48801E-02   -0.48589E-02  6219   0.891E-02    0.188E-01
RMM:   3    -0.232078818250E+04   -0.73603E-04   -0.41863E-03  4059   0.324E-02    0.890E-02
RMM:   4    -0.232078813092E+04    0.51577E-04   -0.49042E-04  2993   0.839E-03    0.442E-02
RMM:   5    -0.232078811712E+04    0.13800E-04   -0.56204E-05  2914   0.492E-03    0.423E-02
RMM:   6    -0.232078810628E+04    0.10846E-04   -0.49245E-05  2894   0.493E-03    0.257E-02
RMM:   7    -0.232078810242E+04    0.38576E-05   -0.18724E-05  2900   0.389E-03
  58 F= -.23416593E+04 E0= -.23416593E+04  d E =-.133590E-02  mag=     7.0000
       N       E                     dE             d eps       ncg     rms          rms(c)
DAV:   1    -0.232076335809E+04    0.24748E-01   -0.12630E+00  4484   0.903E-01    0.423E-01
RMM:   2    -0.232078851121E+04   -0.25153E-01   -0.25048E-01  6090   0.200E-01    0.427E-01
RMM:   3    -0.232078896833E+04   -0.45711E-03   -0.22016E-02  5496   0.763E-02    0.206E-01
RMM:   4    -0.232078869300E+04    0.27533E-03   -0.25519E-03  4263   0.172E-02    0.102E-01
RMM:   5    -0.232078861934E+04    0.73662E-04   -0.28669E-04  3302   0.100E-02    0.968E-02
RMM:   6    -0.232078855849E+04    0.60846E-04   -0.25910E-04  3538   0.976E-03    0.577E-02
RMM:   7    -0.232078853542E+04    0.23073E-04   -0.88570E-05  2970   0.738E-03    0.142E-02
RMM:   8    -0.232078853424E+04    0.11754E-05   -0.13548E-05  2881   0.434E-03
  59 F= -.23416604E+04 E0= -.23416604E+04  d E =-.241556E-02  mag=     7.0000
       N       E                     dE             d eps       ncg     rms          rms(c)
DAV:   1    -0.232078351761E+04    0.50178E-02   -0.31531E-01  4584   0.482E-01    0.220E-01
RMM:   2    -0.232078978895E+04   -0.62713E-02   -0.62063E-02  6005   0.103E-01    0.222E-01
RMM:   3    -0.232078982795E+04   -0.38997E-04   -0.53279E-03  4493   0.403E-02    0.103E-01
RMM:   4    -0.232078975244E+04    0.75512E-04   -0.62555E-04  3102   0.958E-03    0.480E-02
RMM:   5    -0.232078973033E+04    0.22107E-04   -0.69789E-05  2942   0.602E-03    0.415E-02
RMM:   6    -0.232078972552E+04    0.48145E-05   -0.60403E-05  2911   0.593E-03
  60 F= -.23416618E+04 E0= -.23416618E+04  d E =-.144829E-02  mag=     7.0000
       N       E                     dE             d eps       ncg     rms          rms(c)
DAV:   1    -0.232077523634E+04    0.14494E-01   -0.74732E-01  4528   0.742E-01    0.339E-01
RMM:   2    -0.232079008435E+04   -0.14848E-01   -0.14727E-01  5902   0.158E-01    0.340E-01
RMM:   3    -0.232079021190E+04   -0.12755E-03   -0.12650E-02  5231   0.631E-02    0.162E-01
RMM:   4    -0.232079002563E+04    0.18627E-03   -0.15005E-03  3919   0.141E-02    0.775E-02
RMM:   5    -0.232078998928E+04    0.36347E-04   -0.17094E-04  3086   0.848E-03    0.760E-02
RMM:   6    -0.232078994851E+04    0.40770E-04   -0.14813E-04  3267   0.820E-03    0.420E-02
RMM:   7    -0.232078993690E+04    0.11613E-04   -0.52579E-05  2941   0.669E-03    0.111E-02
RMM:   8    -0.232078993646E+04    0.43392E-06   -0.94181E-06  2864   0.408E-03
  61 F= -.23416624E+04 E0= -.23416624E+04  d E =-.204799E-02  mag=     7.0000
       N       E                     dE             d eps       ncg     rms          rms(c)
DAV:   1    -0.232078594276E+04    0.39941E-02   -0.25821E-01  4512   0.425E-01    0.193E-01
RMM:   2    -0.232079097708E+04   -0.50343E-02   -0.49251E-02  6048   0.921E-02    0.214E-01
RMM:   3    -0.232079092761E+04    0.49464E-04   -0.42121E-03  4170   0.347E-02    0.865E-02
RMM:   4    -0.232079088171E+04    0.45898E-04   -0.49375E-04  3050   0.865E-03    0.441E-02
RMM:   5    -0.232079086601E+04    0.15702E-04   -0.61152E-05  2935   0.575E-03    0.410E-02
RMM:   6    -0.232079085940E+04    0.66120E-05   -0.50809E-05  2905   0.556E-03
  62 F= -.23416635E+04 E0= -.23416635E+04  d E =-.110579E-02  mag=     7.0000
       N       E                     dE             d eps       ncg     rms          rms(c)
DAV:   1    -0.232078439152E+04    0.64745E-02   -0.34401E-01  4480   0.491E-01    0.225E-01
RMM:   2    -0.232079115692E+04   -0.67654E-02   -0.66129E-02  5918   0.106E-01    0.257E-01
RMM:   3    -0.232079104306E+04    0.11386E-03   -0.55108E-03  4656   0.426E-02    0.103E-01
RMM:   4    -0.232079097885E+04    0.64204E-04   -0.65902E-04  3155   0.971E-03    0.531E-02
RMM:   5    -0.232079096779E+04    0.11067E-04   -0.86368E-05  2936   0.618E-03    0.568E-02
RMM:   6    -0.232079094446E+04    0.23326E-04   -0.67748E-05  2931   0.616E-03    0.285E-02
RMM:   7    -0.232079093906E+04    0.54044E-05   -0.28464E-05  2899   0.501E-03
  63 F= -.23416638E+04 E0= -.23416638E+04  d E =-.139354E-02  mag=     7.0000
       N       E                     dE             d eps       ncg     rms          rms(c)
DAV:   1    -0.232078542395E+04    0.55205E-02   -0.36193E-01  4528   0.519E-01    0.231E-01
RMM:   2    -0.232079203254E+04   -0.66086E-02   -0.64580E-02  6123   0.111E-01    0.254E-01
RMM:   3    -0.232079192547E+04    0.10708E-03   -0.55325E-03  4771   0.416E-02    0.105E-01
RMM:   4    -0.232079185925E+04    0.66216E-04   -0.67057E-04  3147   0.995E-03    0.521E-02
RMM:   5    -0.232079184332E+04    0.15925E-04   -0.82397E-05  2962   0.650E-03    0.536E-02
RMM:   6    -0.232079182545E+04    0.17880E-04   -0.69731E-05  2921   0.637E-03    0.317E-02
RMM:   7    -0.232079181888E+04    0.65632E-05   -0.30426E-05  2890   0.503E-03
  64 F= -.23416649E+04 E0= -.23416649E+04  d E =-.109337E-02  mag=     7.0000
       N       E                     dE             d eps       ncg     rms          rms(c)
DAV:   1    -0.232078899599E+04    0.28295E-02   -0.16048E-01  4560   0.346E-01    0.154E-01
RMM:   2    -0.232079192589E+04   -0.29299E-02   -0.28656E-02  6207   0.748E-02    0.167E-01
RMM:   3    -0.232079188315E+04    0.42736E-04   -0.24549E-03  3816   0.279E-02    0.698E-02
RMM:   4    -0.232079185413E+04    0.29019E-04   -0.29812E-04  2971   0.728E-03    0.348E-02
RMM:   5    -0.232079184708E+04    0.70563E-05   -0.37790E-05  2900   0.463E-03
  65 F= -.23416651E+04 E0= -.23416651E+04  d E =-.126080E-02  mag=     7.0000
       N       E                     dE             d eps       ncg     rms          rms(c)
DAV:   1    -0.232078635999E+04    0.54941E-02   -0.37990E-01  4480   0.529E-01    0.226E-01
RMM:   2    -0.232079317576E+04   -0.68158E-02   -0.66643E-02  6157   0.113E-01    0.247E-01
RMM:   3    -0.232079312731E+04    0.48446E-04   -0.57882E-03  4791   0.420E-02    0.104E-01
RMM:   4    -0.232079306394E+04    0.63366E-04   -0.67955E-04  3163   0.102E-02    0.535E-02
RMM:   5    -0.232079303314E+04    0.30800E-04   -0.76996E-05  3162   0.707E-03    0.374E-02
RMM:   6    -0.232079303721E+04   -0.40697E-05   -0.82851E-05  2915   0.694E-03
  66 F= -.23416666E+04 E0= -.23416666E+04  d E =-.148662E-02  mag=     7.0000
       N       E                     dE             d eps       ncg     rms          rms(c)
DAV:   1    -0.232077638820E+04    0.16645E-01   -0.95766E-01  4468   0.841E-01    0.371E-01
RMM:   2    -0.232079398138E+04   -0.17593E-01   -0.16971E-01  6004   0.179E-01    0.439E-01
RMM:   3    -0.232079341927E+04    0.56210E-03   -0.14848E-02  5358   0.636E-02    0.161E-01
RMM:   4    -0.232079329548E+04    0.12379E-03   -0.17511E-03  4209   0.150E-02    0.820E-02
RMM:   5    -0.232079323418E+04    0.61300E-04   -0.18704E-04  3595   0.101E-02    0.701E-02
RMM:   6    -0.232079322723E+04    0.69482E-05   -0.17875E-04  3204   0.895E-03    0.647E-02
RMM:   7    -0.232079319543E+04    0.31800E-04   -0.69294E-05  2915   0.685E-03    0.165E-02
RMM:   8    -0.232079319347E+04    0.19577E-05   -0.10273E-05  2865   0.382E-03
  67 F= -.23416672E+04 E0= -.23416672E+04  d E =-.210039E-02  mag=     7.0000
       N       E                     dE             d eps       ncg     rms          rms(c)
DAV:   1    -0.232078972444E+04    0.34710E-02   -0.24537E-01  4560   0.416E-01    0.185E-01
RMM:   2    -0.232079423842E+04   -0.45140E-02   -0.43505E-02  6108   0.890E-02    0.219E-01
RMM:   3    -0.232079410094E+04    0.13749E-03   -0.37190E-03  4023   0.329E-02    0.798E-02
RMM:   4    -0.232079407055E+04    0.30384E-04   -0.45625E-04  3011   0.802E-03    0.417E-02
RMM:   5    -0.232079405822E+04    0.12330E-04   -0.49724E-05  2925   0.498E-03    0.395E-02
RMM:   6    -0.232079405262E+04    0.56039E-05   -0.44658E-05  2899   0.494E-03
  68 F= -.23416683E+04 E0= -.23416683E+04  d E =-.109540E-02  mag=     7.0000
       N       E                     dE             d eps       ncg     rms          rms(c)
DAV:   1    -0.232075561142E+04    0.38447E-01   -0.22029E+00  4504   0.125E+00    0.558E-01
RMM:   2    -0.232079628155E+04   -0.40670E-01   -0.39241E-01  5980   0.266E-01    0.662E-01
RMM:   3    -0.232079498091E+04    0.13006E-02   -0.33992E-02  5400   0.995E-02    0.241E-01
RMM:   4    -0.232079473104E+04    0.24987E-03   -0.41526E-03  4623   0.217E-02    0.127E-01
RMM:   5    -0.232079464571E+04    0.85331E-04   -0.46955E-04  3991   0.131E-02    0.131E-01
RMM:   6    -0.232079454580E+04    0.99904E-04   -0.39153E-04  4096   0.112E-02    0.819E-02
RMM:   7    -0.232079449893E+04    0.46874E-04   -0.17823E-04  3058   0.913E-03    0.271E-02
RMM:   8    -0.232079449190E+04    0.70345E-05   -0.20044E-05  2876   0.474E-03
  69 F= -.23416694E+04 E0= -.23416694E+04  d E =-.221521E-02  mag=     7.0000
       N       E                     dE             d eps       ncg     rms          rms(c)
DAV:   1    -0.232078835769E+04    0.61412E-02   -0.42656E-01  4512   0.565E-01    0.248E-01
RMM:   2    -0.232079615427E+04   -0.77966E-02   -0.75603E-02  6003   0.121E-01    0.286E-01
RMM:   3    -0.232079593782E+04    0.21645E-03   -0.62309E-03  4769   0.449E-02    0.112E-01
RMM:   4    -0.232079585507E+04    0.82755E-04   -0.77188E-04  3299   0.108E-02    0.575E-02
RMM:   5    -0.232079582987E+04    0.25198E-04   -0.10557E-04  3104   0.746E-03    0.533E-02
RMM:   6    -0.232079581888E+04    0.10994E-04   -0.86878E-05  2941   0.704E-03    0.399E-02
RMM:   7    -0.232079580798E+04    0.10900E-04   -0.30448E-05  2906   0.511E-03    0.100E-02
RMM:   8    -0.232079580741E+04    0.57062E-06   -0.56192E-06  2848   0.314E-03
  70 F= -.23416709E+04 E0= -.23416709E+04  d E =-.153309E-02  mag=     7.0000
       N       E                     dE             d eps       ncg     rms          rms(c)
DAV:   1    -0.232078984140E+04    0.59666E-02   -0.35380E-01  4496   0.515E-01    0.225E-01
RMM:   2    -0.232079628200E+04   -0.64406E-02   -0.62461E-02  5895   0.109E-01    0.256E-01
RMM:   3    -0.232079612082E+04    0.16118E-03   -0.52219E-03  4549   0.400E-02    0.101E-01
RMM:   4    -0.232079605086E+04    0.69960E-04   -0.64005E-04  3177   0.987E-03    0.526E-02
RMM:   5    -0.232079603080E+04    0.20062E-04   -0.88177E-05  2995   0.671E-03    0.506E-02
RMM:   6    -0.232079601776E+04    0.13033E-04   -0.72442E-05  2929   0.655E-03    0.347E-02
RMM:   7    -0.232079600953E+04    0.82349E-05   -0.26176E-05  2904   0.478E-03
  71 F= -.23416713E+04 E0= -.23416713E+04  d E =-.192804E-02  mag=     7.0000
       N       E                     dE             d eps       ncg     rms          rms(c)
DAV:   1    -0.232079295194E+04    0.30658E-02   -0.24020E-01  4512   0.433E-01    0.183E-01
RMM:   2    -0.232079698549E+04   -0.40336E-02   -0.39810E-02  6034   0.892E-02    0.193E-01
RMM:   3    -0.232079695426E+04    0.31230E-04   -0.33724E-03  4122   0.365E-02    0.875E-02
RMM:   4    -0.232079690053E+04    0.53736E-04   -0.41009E-04  3025   0.869E-03    0.433E-02
RMM:   5    -0.232079688578E+04    0.14753E-04   -0.65243E-05  2933   0.600E-03    0.404E-02
RMM:   6    -0.232079687698E+04    0.87945E-05   -0.51593E-05  2927   0.570E-03
  72 F= -.23416724E+04 E0= -.23416724E+04  d E =-.102456E-02  mag=     7.0000
       N       E                     dE             d eps       ncg     rms          rms(c)
DAV:   1    -0.232079467214E+04    0.22136E-02   -0.13782E-01  4560   0.329E-01    0.141E-01
RMM:   2    -0.232079701366E+04   -0.23415E-02   -0.23036E-02  6044   0.675E-02    0.153E-01
RMM:   3    -0.232079697248E+04    0.41170E-04   -0.19199E-03  3658   0.260E-02    0.662E-02
RMM:   4    -0.232079694303E+04    0.29451E-04   -0.24045E-04  2966   0.682E-03    0.338E-02
RMM:   5    -0.232079693797E+04    0.50599E-05   -0.39217E-05  2906   0.447E-03
  73 F= -.23416725E+04 E0= -.23416725E+04  d E =-.120409E-02  mag=     7.0000
       N       E                     dE             d eps       ncg     rms          rms(c)
DAV:   1    -0.232079354214E+04    0.34009E-02   -0.24986E-01  4496   0.452E-01    0.178E-01
RMM:   2    -0.232079754165E+04   -0.39995E-02   -0.40189E-02  6018   0.913E-02    0.173E-01
RMM:   3    -0.232079760948E+04   -0.67836E-04   -0.34880E-03  4122   0.357E-02    0.924E-02
RMM:   4    -0.232079753962E+04    0.69868E-04   -0.39891E-04  3042   0.906E-03    0.467E-02
RMM:   5    -0.232079751141E+04    0.28211E-04   -0.80525E-05  3186   0.690E-03    0.282E-02
RMM:   6    -0.232079751369E+04   -0.22830E-05   -0.45131E-05  2920   0.604E-03
  74 F= -.23416734E+04 E0= -.23416734E+04  d E =-.827021E-03  mag=     7.0000
       N       E                     dE             d eps       ncg     rms          rms(c)
DAV:   1    -0.232079658584E+04    0.92556E-03   -0.53007E-02  4696   0.208E-01    0.859E-02
RMM:   2    -0.232079745147E+04   -0.86563E-03   -0.86545E-03  6107   0.433E-02    0.869E-02
RMM:   3    -0.232079745646E+04   -0.49914E-05   -0.79689E-04  3088   0.167E-02    0.420E-02
RMM:   4    -0.232079744437E+04    0.12095E-04   -0.91401E-05  2944   0.477E-03    0.214E-02
RMM:   5    -0.232079744016E+04    0.42028E-05   -0.16242E-05  2890   0.323E-03
  75 F= -.23416734E+04 E0= -.23416734E+04  d E =-.869185E-03  mag=     7.0000
       N       E                     dE             d eps       ncg     rms          rms(c)
DAV:   1    -0.232079583781E+04    0.16066E-02   -0.15646E-01  4496   0.376E-01    0.143E-01
RMM:   2    -0.232079792588E+04   -0.20881E-02   -0.20779E-02  5909   0.731E-02    0.139E-01
RMM:   3    -0.232079791120E+04    0.14679E-04   -0.17194E-03  3882   0.283E-02    0.770E-02
RMM:   4    -0.232079786204E+04    0.49162E-04   -0.22325E-04  3007   0.785E-03    0.365E-02
RMM:   5    -0.232079785764E+04    0.44026E-05   -0.55807E-05  2950   0.585E-03
  76 F= -.23416741E+04 E0= -.23416741E+04  d E =-.674515E-03  mag=     7.0000
       N       E                     dE             d eps       ncg     rms          rms(c)
DAV:   1    -0.232079705755E+04    0.80449E-03   -0.53275E-02  4576   0.220E-01    0.835E-02
RMM:   2    -0.232079775582E+04   -0.69827E-03   -0.70949E-03  6173   0.451E-02    0.731E-02
RMM:   3    -0.232079777433E+04   -0.18508E-04   -0.69648E-04  3197   0.167E-02    0.445E-02
RMM:   4    -0.232079775714E+04    0.17194E-04   -0.75646E-05  2957   0.522E-03    0.233E-02
RMM:   5    -0.232079775607E+04    0.10667E-05   -0.22003E-05  2909   0.372E-03
  77 F= -.23416741E+04 E0= -.23416741E+04  d E =-.723709E-03  mag=     7.0000
       N       E                     dE             d eps       ncg     rms          rms(c)
DAV:   1    -0.232079636444E+04    0.13927E-02   -0.15787E-01  4496   0.386E-01    0.136E-01
RMM:   2    -0.232079826109E+04   -0.18967E-02   -0.18859E-02  5939   0.724E-02    0.136E-01
RMM:   3    -0.232079823824E+04    0.22859E-04   -0.15660E-03  3828   0.277E-02    0.720E-02
RMM:   4    -0.232079819497E+04    0.43262E-04   -0.19652E-04  3004   0.764E-03    0.361E-02
RMM:   5    -0.232079819250E+04    0.24761E-05   -0.52448E-05  2933   0.571E-03
  78 F= -.23416748E+04 E0= -.23416748E+04  d E =-.682014E-03  mag=     7.0000
       N       E                     dE             d eps       ncg     rms          rms(c)
DAV:   1    -0.232079737741E+04    0.81756E-03   -0.61512E-02  4576   0.241E-01    0.840E-02
RMM:   2    -0.232079809871E+04   -0.72129E-03   -0.73687E-03  6154   0.471E-02    0.712E-02
RMM:   3    -0.232079811909E+04   -0.20388E-04   -0.66506E-04  3230   0.168E-02    0.466E-02
RMM:   4    -0.232079810025E+04    0.18848E-04   -0.76140E-05  2944   0.533E-03    0.237E-02
RMM:   5    -0.232079809783E+04    0.24182E-05   -0.22036E-05  2912   0.394E-03
  79 F= -.23416749E+04 E0= -.23416749E+04  d E =-.741460E-03  mag=     7.0000
       N       E                     dE             d eps       ncg     rms          rms(c)
DAV:   1    -0.232079704648E+04    0.10538E-02   -0.13844E-01  4496   0.361E-01    0.127E-01
RMM:   2    -0.232079863166E+04   -0.15852E-02   -0.15877E-02  5971   0.681E-02    0.121E-01
RMM:   3    -0.232079862914E+04    0.25134E-05   -0.13522E-03  3775   0.259E-02    0.688E-02
RMM:   4    -0.232079858893E+04    0.40215E-04   -0.16535E-04  2971   0.724E-03    0.333E-02
RMM:   5    -0.232079858712E+04    0.18108E-05   -0.45439E-05  2919   0.515E-03
  80 F= -.23416756E+04 E0= -.23416756E+04  d E =-.679542E-03  mag=     7.0000
       N       E                     dE             d eps       ncg     rms          rms(c)
DAV:   1    -0.232079691689E+04    0.16720E-02   -0.14570E-01  4496   0.371E-01    0.129E-01
RMM:   2    -0.232079855543E+04   -0.16385E-02   -0.16677E-02  6015   0.699E-02    0.109E-01
RMM:   3    -0.232079859301E+04   -0.37581E-04   -0.14572E-03  3844   0.268E-02    0.704E-02
RMM:   4    -0.232079854568E+04    0.47327E-04   -0.17059E-04  2988   0.746E-03    0.330E-02
RMM:   5    -0.232079853166E+04    0.14019E-04   -0.41807E-05  3010   0.581E-03    0.165E-02
RMM:   6    -0.232079853301E+04   -0.13436E-05   -0.20349E-05  2883   0.510E-03
  81 F= -.23416757E+04 E0= -.23416757E+04  d E =-.820829E-03  mag=     7.0000
       N       E                     dE             d eps       ncg     rms          rms(c)
DAV:   1    -0.232079696206E+04    0.15696E-02   -0.16998E-01  4496   0.382E-01    0.136E-01
RMM:   2    -0.232079902195E+04   -0.20599E-02   -0.20577E-02  5807   0.721E-02    0.125E-01
RMM:   3    -0.232079905332E+04   -0.31364E-04   -0.18583E-03  3788   0.285E-02    0.689E-02
RMM:   4    -0.232079901666E+04    0.36657E-04   -0.21403E-04  3005   0.732E-03    0.334E-02
RMM:   5    -0.232079900243E+04    0.14229E-04   -0.37011E-05  2937   0.541E-03    0.180E-02
RMM:   6    -0.232079900468E+04   -0.22449E-05   -0.23871E-05  2899   0.492E-03
  82 F= -.23416764E+04 E0= -.23416764E+04  d E =-.697605E-03  mag=     7.0000
       N       E                     dE             d eps       ncg     rms          rms(c)
DAV:   1    -0.232079688211E+04    0.21203E-02   -0.17228E-01  4496   0.385E-01    0.138E-01
RMM:   2    -0.232079897249E+04   -0.20904E-02   -0.20854E-02  5719   0.727E-02    0.128E-01
RMM:   3    -0.232079900218E+04   -0.29683E-04   -0.19158E-03  3965   0.322E-02    0.699E-02
RMM:   4    -0.232079896809E+04    0.34086E-04   -0.22216E-04  2993   0.742E-03    0.355E-02
RMM:   5    -0.232079896344E+04    0.46470E-05   -0.45074E-05  2908   0.524E-03
  83 F= -.23416766E+04 E0= -.23416766E+04  d E =-.883805E-03  mag=     7.0000
       N       E                     dE             d eps       ncg     rms          rms(c)
DAV:   1    -0.232079773180E+04    0.12363E-02   -0.13913E-01  4496   0.358E-01    0.134E-01
RMM:   2    -0.232079926228E+04   -0.15305E-02   -0.15818E-02  5946   0.698E-02    0.950E-02
RMM:   3    -0.232079933523E+04   -0.72954E-04   -0.15192E-03  3968   0.292E-02    0.731E-02
RMM:   4    -0.232079928256E+04    0.52668E-04   -0.17636E-04  3025   0.793E-03    0.347E-02
RMM:   5    -0.232079927126E+04    0.11306E-04   -0.49659E-05  3033   0.607E-03    0.256E-02
RMM:   6    -0.232079926960E+04    0.16549E-05   -0.29411E-05  2881   0.550E-03
  84 F= -.23416771E+04 E0= -.23416771E+04  d E =-.521875E-03  mag=     7.0000
       N       E                     dE             d eps       ncg     rms          rms(c)
DAV:   1    -0.232079819940E+04    0.10719E-02   -0.71322E-02  4560   0.256E-01    0.974E-02
RMM:   2    -0.232079900036E+04   -0.80097E-03   -0.81876E-03  5894   0.497E-02    0.747E-02
RMM:   3    -0.232079902495E+04   -0.24587E-04   -0.74747E-04  3453   0.199E-02    0.523E-02
RMM:   4    -0.232079899996E+04    0.24988E-04   -0.90844E-05  2940   0.572E-03    0.232E-02
RMM:   5    -0.232079899150E+04    0.84652E-05   -0.23677E-05  2909   0.447E-03
  85 F= -.23416770E+04 E0= -.23416770E+04  d E =-.398295E-03  mag=     7.0000
       N       E                     dE             d eps       ncg     rms          rms(c)
DAV:   1    -0.232079885433E+04    0.14563E-03   -0.34118E-02  4528   0.177E-01    0.673E-02
RMM:   2    -0.232079923895E+04   -0.38462E-03   -0.38377E-03  5954   0.357E-02    0.617E-02
RMM:   3    -0.232079923894E+04    0.12253E-07   -0.36315E-04  3076   0.135E-02    0.368E-02
RMM:   4    -0.232079922617E+04    0.12769E-04   -0.42850E-05  2927   0.447E-03    0.172E-02
RMM:   5    -0.232079922556E+04    0.61403E-06   -0.12916E-05  2888   0.298E-03
  86 F= -.23416771E+04 E0= -.23416771E+04  d E =-.526742E-03  mag=     7.0000
       N       E                     dE             d eps       ncg     rms          rms(c)
DAV:   1    -0.232079826449E+04    0.96168E-03   -0.88607E-02  4496   0.273E-01    0.108E-01
RMM:   2    -0.232079945635E+04   -0.11919E-02   -0.12061E-02  5956   0.544E-02    0.901E-02
RMM:   3    -0.232079949519E+04   -0.38845E-04   -0.11379E-03  3422   0.218E-02    0.555E-02
RMM:   4    -0.232079947160E+04    0.23588E-04   -0.13252E-04  2954   0.616E-03    0.290E-02
RMM:   5    -0.232079946701E+04    0.45904E-05   -0.31110E-05  2895   0.433E-03
  87 F= -.23416775E+04 E0= -.23416775E+04  d E =-.399402E-03  mag=     7.0000
       N       E                     dE             d eps       ncg     rms          rms(c)
DAV:   1    -0.232079906296E+04    0.40864E-03   -0.24223E-02  4656   0.144E-01    0.574E-02
RMM:   2    -0.232079938910E+04   -0.32614E-03   -0.33695E-03  5853   0.303E-02    0.474E-02
RMM:   3    -0.232079940538E+04   -0.16276E-04   -0.36249E-04  2961   0.121E-02    0.313E-02
RMM:   4    -0.232079939684E+04    0.85314E-05   -0.37842E-05  2933   0.392E-03
  88 F= -.23416775E+04 E0= -.23416775E+04  d E =-.413047E-03  mag=     7.0000
       N       E                     dE             d eps       ncg     rms          rms(c)
DAV:   1    -0.232079825139E+04    0.11540E-02   -0.10568E-01  4496   0.302E-01    0.113E-01
RMM:   2    -0.232079961782E+04   -0.13664E-02   -0.14089E-02  5854   0.574E-02    0.777E-02
RMM:   3    -0.232079970486E+04   -0.87038E-04   -0.14277E-03  3557   0.248E-02    0.542E-02
RMM:   4    -0.232079968144E+04    0.23415E-04   -0.14979E-04  2955   0.628E-03    0.325E-02
RMM:   5    -0.232079967310E+04    0.83379E-05   -0.37772E-05  2903   0.462E-03
  89 F= -.23416779E+04 E0= -.23416779E+04  d E =-.425434E-03  mag=     7.0000
       N       E                     dE             d eps       ncg     rms          rms(c)
DAV:   1    -0.232079849149E+04    0.11900E-02   -0.83726E-02  4484   0.269E-01    0.105E-01
RMM:   2    -0.232079962701E+04   -0.11355E-02   -0.11422E-02  6103   0.534E-02    0.999E-02
RMM:   3    -0.232079964906E+04   -0.22056E-04   -0.11198E-03  3389   0.200E-02    0.574E-02
RMM:   4    -0.232079962178E+04    0.27278E-04   -0.11783E-04  2927   0.607E-03    0.295E-02
RMM:   5    -0.232079961913E+04    0.26562E-05   -0.32794E-05  2917   0.395E-03
  90 F= -.23416780E+04 E0= -.23416780E+04  d E =-.505184E-03  mag=     7.0000
       N       E                     dE             d eps       ncg     rms          rms(c)
DAV:   1    -0.232079876581E+04    0.85597E-03   -0.85804E-02  4484   0.265E-01    0.997E-02
RMM:   2    -0.232079991111E+04   -0.11453E-02   -0.11700E-02  6017   0.517E-02    0.803E-02
RMM:   3    -0.232079997521E+04   -0.64102E-04   -0.12021E-03  3382   0.214E-02    0.508E-02
RMM:   4    -0.232079995245E+04    0.22754E-04   -0.11984E-04  2952   0.580E-03    0.274E-02
RMM:   5    -0.232079994374E+04    0.87120E-05   -0.28974E-05  2910   0.425E-03
  91 F= -.23416785E+04 E0= -.23416785E+04  d E =-.436941E-03  mag=     7.0000
       N       E                     dE             d eps       ncg     rms          rms(c)
DAV:   1    -0.232079679901E+04    0.31534E-02   -0.23176E-01  4484   0.435E-01    0.165E-01
RMM:   2    -0.232079990555E+04   -0.31065E-02   -0.31580E-02  5990   0.843E-02    0.133E-01
RMM:   3    -0.232080005888E+04   -0.15333E-03   -0.30547E-03  4066   0.349E-02    0.856E-02
RMM:   4    -0.232080000218E+04    0.56698E-04   -0.32430E-04  2996   0.874E-03    0.457E-02
RMM:   5    -0.232079999030E+04    0.11881E-04   -0.74231E-05  2956   0.600E-03    0.446E-02
RMM:   6    -0.232079997523E+04    0.15069E-04   -0.58128E-05  2923   0.602E-03    0.182E-02
RMM:   7    -0.232079997389E+04    0.13403E-05   -0.10707E-05  2891   0.402E-03
  92 F= -.23416787E+04 E0= -.23416787E+04  d E =-.652326E-03  mag=     7.0000
       N       E                     dE             d eps       ncg     rms          rms(c)
DAV:   1    -0.232079855555E+04    0.14197E-02   -0.13036E-01  4484   0.327E-01    0.127E-01
RMM:   2    -0.232080034652E+04   -0.17910E-02   -0.18160E-02  5966   0.643E-02    0.106E-01
RMM:   3    -0.232080041991E+04   -0.73397E-04   -0.17396E-03  3670   0.272E-02    0.634E-02
RMM:   4    -0.232080038879E+04    0.31128E-04   -0.19328E-04  2960   0.690E-03    0.333E-02
RMM:   5    -0.232080038164E+04    0.71480E-05   -0.41941E-05  2902   0.484E-03
  93 F= -.23416792E+04 E0= -.23416792E+04  d E =-.515739E-03  mag=     7.0000
       N       E                     dE             d eps       ncg     rms          rms(c)
DAV:   1    -0.232079768576E+04    0.27030E-02   -0.19134E-01  4484   0.397E-01    0.152E-01
RMM:   2    -0.232080030677E+04   -0.26210E-02   -0.26788E-02  6054   0.786E-02    0.125E-01
RMM:   3    -0.232080043530E+04   -0.12853E-03   -0.26662E-03  3925   0.318E-02    0.778E-02
RMM:   4    -0.232080038100E+04    0.54303E-04   -0.27665E-04  2988   0.826E-03    0.409E-02
RMM:   5    -0.232080036247E+04    0.18524E-04   -0.66504E-05  3073   0.624E-03    0.252E-02
RMM:   6    -0.232080036407E+04   -0.15991E-05   -0.35604E-05  2888   0.561E-03
  94 F= -.23416793E+04 E0= -.23416793E+04  d E =-.630296E-03  mag=     7.0000
       N       E                     dE             d eps       ncg     rms          rms(c)
DAV:   1    -0.232079928454E+04    0.10779E-02   -0.96251E-02  4512   0.271E-01    0.107E-01
RMM:   2    -0.232080066403E+04   -0.13795E-02   -0.13964E-02  6040   0.539E-02    0.910E-02
[...]
 118 F= -.23416862E+04 E0= -.23416862E+04  d E =-.637977E-03  mag=     7.0000
       N       E                     dE             d eps       ncg     rms          rms(c)
DAV:   1    -0.232080280623E+04    0.11162E-02   -0.11948E-01  4456   0.291E-01    0.117E-01
RMM:   2    -0.232080415066E+04   -0.13444E-02   -0.14114E-02  6022   0.582E-02    0.659E-02
RMM:   3    -0.232080425760E+04   -0.10694E-03   -0.14456E-03  3561   0.235E-02    0.493E-02
RMM:   4    -0.232080424857E+04    0.90268E-05   -0.15054E-04  2951   0.604E-03    0.329E-02
RMM:   5    -0.232080424149E+04    0.70828E-05   -0.39878E-05  2914   0.446E-03
 119 F= -.23416868E+04 E0= -.23416868E+04  d E =-.515758E-03  mag=     7.0000
       N       E                     dE             d eps       ncg     rms          rms(c)
DAV:   1    -0.232080168228E+04    0.25663E-02   -0.20830E-01  4456   0.384E-01    0.156E-01
RMM:   2    -0.232080406086E+04   -0.23786E-02   -0.24793E-02  6028   0.767E-02    0.101E-01
RMM:   3    -0.232080423386E+04   -0.17300E-03   -0.24724E-03  4025   0.308E-02    0.801E-02
RMM:   4    -0.232080418879E+04    0.45075E-04   -0.26271E-04  2997   0.810E-03    0.427E-02
RMM:   5    -0.232080417516E+04    0.13624E-04   -0.73410E-05  2980   0.596E-03    0.311E-02
RMM:   6    -0.232080417281E+04    0.23534E-05   -0.40013E-05  2903   0.552E-03
 120 F= -.23416869E+04 E0= -.23416869E+04  d E =-.700160E-03  mag=     7.0000
       N       E                     dE             d eps       ncg     rms          rms(c)
DAV:   1    -0.232080272117E+04    0.14540E-02   -0.15727E-01  4456   0.336E-01    0.137E-01
RMM:   2    -0.232080443388E+04   -0.17127E-02   -0.18064E-02  5954   0.673E-02    0.765E-02
RMM:   3    -0.232080455496E+04   -0.12108E-03   -0.17395E-03  3914   0.277E-02    0.603E-02
RMM:   4    -0.232080453550E+04    0.19461E-04   -0.19392E-04  2965   0.701E-03    0.379E-02
RMM:   5    -0.232080452098E+04    0.14526E-04   -0.59442E-05  2942   0.567E-03    0.196E-02
RMM:   6    -0.232080451961E+04    0.13636E-05   -0.19368E-05  2912   0.476E-03
 121 F= -.23416875E+04 E0= -.23416875E+04  d E =-.552670E-03  mag=     7.0000
       N       E                     dE             d eps       ncg     rms          rms(c)
DAV:   1    -0.232080373330E+04    0.78768E-03   -0.61643E-02  4480   0.210E-01    0.852E-02
RMM:   2    -0.232080440159E+04   -0.66829E-03   -0.70587E-03  5986   0.429E-02    0.451E-02
RMM:   3    -0.232080445555E+04   -0.53964E-04   -0.73445E-04  3305   0.182E-02    0.378E-02
RMM:   4    -0.232080445035E+04    0.52006E-05   -0.80939E-05  2925   0.474E-03
 122 F= -.23416875E+04 E0= -.23416875E+04  d E =-.613028E-03  mag=     7.0000
       N       E                     dE             d eps       ncg     rms          rms(c)
DAV:   1    -0.232080333859E+04    0.11170E-02   -0.12416E-01  4456   0.296E-01    0.122E-01
RMM:   2    -0.232080468770E+04   -0.13491E-02   -0.14214E-02  5953   0.593E-02    0.731E-02
RMM:   3    -0.232080479311E+04   -0.10542E-03   -0.14619E-03  3775   0.261E-02    0.669E-02
RMM:   4    -0.232080476570E+04    0.27414E-04   -0.16766E-04  2946   0.662E-03    0.389E-02
RMM:   5    -0.232080475364E+04    0.12056E-04   -0.50851E-05  2973   0.505E-03    0.246E-02
RMM:   6    -0.232080475201E+04    0.16364E-05   -0.28805E-05  2904   0.468E-03
 123 F= -.23416881E+04 E0= -.23416881E+04  d E =-.502955E-03  mag=     7.0000
       N       E                     dE             d eps       ncg     rms          rms(c)
DAV:   1    -0.232080357367E+04    0.11800E-02   -0.95143E-02  4456   0.258E-01    0.106E-01
RMM:   2    -0.232080461189E+04   -0.10382E-02   -0.10934E-02  5890   0.515E-02    0.618E-02
RMM:   3    -0.232080468474E+04   -0.72848E-04   -0.10675E-03  3528   0.224E-02    0.490E-02
RMM:   4    -0.232080467289E+04    0.11843E-04   -0.11373E-04  2944   0.574E-03    0.306E-02
RMM:   5    -0.232080466499E+04    0.79013E-05   -0.37305E-05  2912   0.444E-03
 124 F= -.23416881E+04 E0= -.23416881E+04  d E =-.592764E-03  mag=     7.0000
       N       E                     dE             d eps       ncg     rms          rms(c)
DAV:   1    -0.232080389670E+04    0.77619E-03   -0.94747E-02  4484   0.251E-01    0.103E-01
RMM:   2    -0.232080492966E+04   -0.10330E-02   -0.10806E-02  6067   0.517E-02    0.701E-02
RMM:   3    -0.232080500449E+04   -0.74821E-04   -0.11120E-03  3423   0.206E-02    0.570E-02
RMM:   4    -0.232080498135E+04    0.23132E-04   -0.12209E-04  2951   0.596E-03    0.313E-02
RMM:   5    -0.232080497669E+04    0.46605E-05   -0.37301E-05  2940   0.413E-03
 125 F= -.23416886E+04 E0= -.23416886E+04  d E =-.477742E-03  mag=     7.0000
       N       E                     dE             d eps       ncg     rms          rms(c)
DAV:   1    -0.232080343338E+04    0.15480E-02   -0.13498E-01  4472   0.299E-01    0.123E-01
RMM:   2    -0.232080491800E+04   -0.14846E-02   -0.15440E-02  6026   0.604E-02    0.933E-02
RMM:   3    -0.232080501374E+04   -0.95743E-04   -0.15766E-03  3659   0.252E-02    0.748E-02
RMM:   4    -0.232080497233E+04    0.41405E-04   -0.17305E-04  2965   0.710E-03    0.360E-02
RMM:   5    -0.232080496617E+04    0.61662E-05   -0.55163E-05  2983   0.525E-03
 126 F= -.23416888E+04 E0= -.23416888E+04  d E =-.666496E-03  mag=     7.0000
       N       E                     dE             d eps       ncg     rms          rms(c)
DAV:   1    -0.232080447079E+04    0.50155E-03   -0.10462E-01  4484   0.289E-01    0.113E-01
RMM:   2    -0.232080539837E+04   -0.92758E-03   -0.98853E-03  5978   0.575E-02    0.722E-02
RMM:   3    -0.232080546374E+04   -0.65376E-04   -0.10559E-03  3738   0.239E-02    0.654E-02
RMM:   4    -0.232080542774E+04    0.36000E-04   -0.11966E-04  2963   0.683E-03    0.319E-02
RMM:   5    -0.232080542038E+04    0.73624E-05   -0.43098E-05  2960   0.512E-03
 127 F= -.23416894E+04 E0= -.23416894E+04  d E =-.569618E-03  mag=     7.0000
       N       E                     dE             d eps       ncg     rms          rms(c)
DAV:   1    -0.232080478538E+04    0.64236E-03   -0.71067E-02  4484   0.238E-01    0.946E-02
RMM:   2    -0.232080543388E+04   -0.64850E-03   -0.67986E-03  5998   0.474E-02    0.727E-02
RMM:   3    -0.232080546383E+04   -0.29945E-04   -0.67483E-04  3481   0.188E-02    0.617E-02
RMM:   4    -0.232080543099E+04    0.32832E-04   -0.82123E-05  2926   0.606E-03    0.250E-02
RMM:   5    -0.232080542773E+04    0.32672E-05   -0.34444E-05  2957   0.459E-03
 128 F= -.23416895E+04 E0= -.23416895E+04  d E =-.672717E-03  mag=     7.0000
       N       E                     dE             d eps       ncg     rms          rms(c)
DAV:   1    -0.232080464642E+04    0.78457E-03   -0.11957E-01  4472   0.297E-01    0.114E-01
RMM:   2    -0.232080569714E+04   -0.10507E-02   -0.11164E-02  6024   0.588E-02    0.728E-02
RMM:   3    -0.232080575996E+04   -0.62822E-04   -0.10461E-03  3672   0.228E-02    0.639E-02
RMM:   4    -0.232080572899E+04    0.30977E-04   -0.12737E-04  2955   0.680E-03    0.336E-02
RMM:   5    -0.232080571721E+04    0.11774E-04   -0.51585E-05  2974   0.542E-03    0.140E-02
RMM:   6    -0.232080571772E+04   -0.50222E-06   -0.13736E-05  2896   0.461E-03
 129 F= -.23416899E+04 E0= -.23416899E+04  d E =-.450824E-03  mag=     7.0000
       N       E                     dE             d eps       ncg     rms          rms(c)
DAV:   1    -0.232080525017E+04    0.46704E-03   -0.45553E-02  4528   0.183E-01    0.706E-02
RMM:   2    -0.232080565001E+04   -0.39984E-03   -0.42570E-03  5860   0.358E-02    0.389E-02
RMM:   3    -0.232080567237E+04   -0.22361E-04   -0.37617E-04  3135   0.142E-02    0.304E-02
RMM:   4    -0.232080566808E+04    0.42905E-05   -0.49432E-05  2931   0.413E-03
 130 F= -.23416900E+04 E0= -.23416900E+04  d E =-.500871E-03  mag=     7.0000
       N       E                     dE             d eps       ncg     rms          rms(c)
DAV:   1    -0.232080487462E+04    0.79774E-03   -0.12840E-01  4456   0.311E-01    0.123E-01
RMM:   2    -0.232080593674E+04   -0.10621E-02   -0.11392E-02  5795   0.599E-02    0.760E-02
RMM:   3    -0.232080600155E+04   -0.64813E-04   -0.10868E-03  3834   0.247E-02    0.725E-02
RMM:   4    -0.232080595898E+04    0.42577E-04   -0.13904E-04  2970   0.705E-03    0.353E-02
RMM:   5    -0.232080594543E+04    0.13546E-04   -0.56149E-05  3017   0.581E-03    0.115E-02
RMM:   6    -0.232080594630E+04   -0.87077E-06   -0.13617E-05  2908   0.481E-03
 131 F= -.23416905E+04 E0= -.23416905E+04  d E =-.504273E-03  mag=     7.0000
       N       E                     dE             d eps       ncg     rms          rms(c)
DAV:   1    -0.232080563157E+04    0.31386E-03   -0.29079E-02  4512   0.148E-01    0.583E-02
RMM:   2    -0.232080587295E+04   -0.24138E-03   -0.25848E-03  5693   0.289E-02    0.334E-02
RMM:   3    -0.232080588890E+04   -0.15948E-04   -0.24730E-04  3042   0.124E-02    0.322E-02
RMM:   4    -0.232080588186E+04    0.70394E-05   -0.32258E-05  2904   0.361E-03
 132 F= -.23416905E+04 E0= -.23416905E+04  d E =-.547682E-03  mag=     7.0000
       N       E                     dE             d eps       ncg     rms          rms(c)
DAV:   1    -0.232080545357E+04    0.43533E-03   -0.96843E-02  4472   0.273E-01    0.108E-01
RMM:   2    -0.232080618901E+04   -0.73544E-03   -0.79969E-03  5790   0.517E-02    0.630E-02
RMM:   3    -0.232080623743E+04   -0.48416E-04   -0.76849E-04  3687   0.218E-02    0.643E-02
RMM:   4    -0.232080620554E+04    0.31886E-04   -0.10812E-04  2937   0.634E-03    0.317E-02
RMM:   5    -0.232080619448E+04    0.11059E-04   -0.41291E-05  2991   0.522E-03    0.156E-02
RMM:   6    -0.232080619495E+04   -0.46880E-06   -0.16672E-05  2905   0.465E-03
 133 F= -.23416910E+04 E0= -.23416910E+04  d E =-.467994E-03  mag=     7.0000
       N       E                     dE             d eps       ncg     rms          rms(c)
DAV:   1    -0.232080594235E+04    0.25213E-03   -0.27340E-02  4592   0.145E-01    0.571E-02
RMM:   2    -0.232080615255E+04   -0.21020E-03   -0.22776E-03  5664   0.278E-02    0.308E-02
RMM:   3    -0.232080616363E+04   -0.11081E-04   -0.21317E-04  3033   0.124E-02    0.267E-02
RMM:   4    -0.232080616032E+04    0.33130E-05   -0.28825E-05  2908   0.351E-03
 134 F= -.23416910E+04 E0= -.23416910E+04  d E =-.515936E-03  mag=     7.0000
       N       E                     dE             d eps       ncg     rms          rms(c)
DAV:   1    -0.232080577388E+04    0.38975E-03   -0.10849E-01  4456   0.290E-01    0.113E-01
RMM:   2    -0.232080655895E+04   -0.78507E-03   -0.84310E-03  5804   0.536E-02    0.723E-02
RMM:   3    -0.232080661119E+04   -0.52245E-04   -0.85398E-04  3687   0.219E-02    0.740E-02
RMM:   4    -0.232080656410E+04    0.47089E-04   -0.11271E-04  2940   0.663E-03    0.312E-02
RMM:   5    -0.232080655317E+04    0.10936E-04   -0.44695E-05  3012   0.542E-03    0.175E-02
RMM:   6    -0.232080655328E+04   -0.10977E-06   -0.19061E-05  2896   0.484E-03
 135 F= -.23416915E+04 E0= -.23416915E+04  d E =-.457950E-03  mag=     7.0000
       N       E                     dE             d eps       ncg     rms          rms(c)
DAV:   1    -0.232080635696E+04    0.19621E-03   -0.26439E-02  4576   0.143E-01    0.555E-02
RMM:   2    -0.232080654750E+04   -0.19054E-03   -0.20576E-03  5647   0.270E-02    0.307E-02
RMM:   3    -0.232080655921E+04   -0.11701E-04   -0.21415E-04  3015   0.126E-02    0.280E-02
RMM:   4    -0.232080655451E+04    0.47014E-05   -0.26455E-05  2901   0.342E-03
 136 F= -.23416915E+04 E0= -.23416915E+04  d E =-.491502E-03  mag=     7.0000
       N       E                     dE             d eps       ncg     rms          rms(c)
DAV:   1    -0.232080612997E+04    0.42923E-03   -0.11739E-01  4456   0.295E-01    0.116E-01
RMM:   2    -0.232080693217E+04   -0.80220E-03   -0.86778E-03  5772   0.552E-02    0.767E-02
RMM:   3    -0.232080697921E+04   -0.47040E-04   -0.84543E-04  3748   0.221E-02    0.770E-02
RMM:   4    -0.232080692841E+04    0.50799E-04   -0.11874E-04  2993   0.697E-03    0.324E-02
RMM:   5    -0.232080691754E+04    0.10868E-04   -0.51377E-05  3099   0.580E-03    0.168E-02
RMM:   6    -0.232080691811E+04   -0.57204E-06   -0.18191E-05  2897   0.497E-03
 137 F= -.23416920E+04 E0= -.23416920E+04  d E =-.442068E-03  mag=     7.0000
       N       E                     dE             d eps       ncg     rms          rms(c)
DAV:   1    -0.232080682010E+04    0.97443E-04   -0.12155E-02  4824   0.949E-02    0.372E-02
RMM:   2    -0.232080690403E+04   -0.83927E-04   -0.90956E-04  5209   0.186E-02    0.208E-02
RMM:   3    -0.232080690896E+04   -0.49325E-05   -0.88756E-05  2900   0.852E-03
 138 F= -.23416920E+04 E0= -.23416920E+04  d E =-.458383E-03  mag=     7.0000
       N       E                     dE             d eps       ncg     rms          rms(c)
DAV:   1    -0.232080649614E+04    0.40789E-03   -0.12230E-01  4472   0.308E-01    0.119E-01
RMM:   2    -0.232080721351E+04   -0.71738E-03   -0.79856E-03  5726   0.566E-02    0.640E-02
RMM:   3    -0.232080723622E+04   -0.22713E-04   -0.69479E-04  3752   0.209E-02    0.565E-02
RMM:   4    -0.232080721735E+04    0.18871E-04   -0.10835E-04  2985   0.679E-03    0.380E-02
RMM:   5    -0.232080720356E+04    0.13789E-04   -0.59344E-05  3004   0.601E-03    0.163E-02
RMM:   6    -0.232080720199E+04    0.15758E-05   -0.12723E-05  2899   0.461E-03
 139 F= -.23416925E+04 E0= -.23416925E+04  d E =-.465837E-03  mag=     7.0000
       N       E                     dE             d eps       ncg     rms          rms(c)
DAV:   1    -0.232080705200E+04    0.15157E-03   -0.17488E-02  4768   0.117E-01    0.444E-02
RMM:   2    -0.232080715828E+04   -0.10628E-03   -0.11550E-03  5374   0.222E-02    0.273E-02
RMM:   3    -0.232080716426E+04   -0.59812E-05   -0.11187E-04  2923   0.988E-03    0.289E-02
RMM:   4    -0.232080715694E+04    0.73127E-05   -0.17228E-05  2894   0.320E-03
 140 F= -.23416925E+04 E0= -.23416925E+04  d E =-.486510E-03  mag=     7.0000
       N       E                     dE             d eps       ncg     rms          rms(c)
DAV:   1    -0.232080666415E+04    0.50011E-03   -0.13759E-01  4472   0.316E-01    0.123E-01
RMM:   2    -0.232080744926E+04   -0.78511E-03   -0.86802E-03  5722   0.575E-02    0.715E-02
RMM:   3    -0.232080748938E+04   -0.40121E-04   -0.78389E-04  3847   0.226E-02    0.752E-02
RMM:   4    -0.232080744084E+04    0.48539E-04   -0.12351E-04  3014   0.706E-03    0.338E-02
RMM:   5    -0.232080742819E+04    0.12646E-04   -0.58138E-05  3116   0.591E-03    0.118E-02
RMM:   6    -0.232080742883E+04   -0.63474E-06   -0.13020E-05  2908   0.480E-03
 141 F= -.23416929E+04 E0= -.23416929E+04  d E =-.453234E-03  mag=     7.0000
       N       E                     dE             d eps       ncg     rms          rms(c)
DAV:   1    -0.232080728903E+04    0.13916E-03   -0.15825E-02  4808   0.107E-01    0.418E-02
RMM:   2    -0.232080738098E+04   -0.91952E-04   -0.10055E-03  5300   0.201E-02    0.227E-02
RMM:   3    -0.232080738653E+04   -0.55412E-05   -0.98511E-05  2922   0.917E-03
 142 F= -.23416930E+04 E0= -.23416930E+04  d E =-.472709E-03  mag=     7.0000
       N       E                     dE             d eps       ncg     rms          rms(c)
DAV:   1    -0.232080675813E+04    0.62285E-03   -0.15066E-01  4456   0.327E-01    0.132E-01
RMM:   2    -0.232080773439E+04   -0.97626E-03   -0.10664E-02  5784   0.627E-02    0.791E-02
RMM:   3    -0.232080778590E+04   -0.51509E-04   -0.97719E-04  3859   0.227E-02    0.780E-02
RMM:   4    -0.232080773662E+04    0.49284E-04   -0.14055E-04  3016   0.745E-03    0.392E-02
RMM:   5    -0.232080771987E+04    0.16750E-04   -0.72495E-05  3115   0.648E-03    0.148E-02
RMM:   6    -0.232080772006E+04   -0.18933E-06   -0.16193E-05  2905   0.514E-03
 143 F= -.23416934E+04 E0= -.23416934E+04  d E =-.468540E-03  mag=     7.0000
       N       E                     dE             d eps       ncg     rms          rms(c)
DAV:   1    -0.232080761574E+04    0.10413E-03   -0.10956E-02  4864   0.884E-02    0.352E-02
RMM:   2    -0.232080768826E+04   -0.72526E-04   -0.78488E-04  5053   0.179E-02    0.199E-02
RMM:   3    -0.232080769312E+04   -0.48631E-05   -0.80873E-05  2894   0.828E-03
 144 F= -.23416934E+04 E0= -.23416934E+04  d E =-.478315E-03  mag=     7.0000
       N       E                     dE             d eps       ncg     rms          rms(c)
DAV:   1    -0.232080682550E+04    0.86276E-03   -0.15352E-01  4456   0.336E-01    0.144E-01
RMM:   2    -0.232080798110E+04   -0.11556E-02   -0.12563E-02  5850   0.645E-02    0.855E-02
RMM:   3    -0.232080805678E+04   -0.75673E-04   -0.11843E-03  3932   0.241E-02    0.872E-02
RMM:   4    -0.232080799293E+04    0.63846E-04   -0.17153E-04  3110   0.780E-03    0.384E-02
RMM:   5    -0.232080797667E+04    0.16261E-04   -0.64827E-05  3164   0.637E-03    0.185E-02
RMM:   6    -0.232080797750E+04   -0.82669E-06   -0.22170E-05  2908   0.527E-03
 145 F= -.23416939E+04 E0= -.23416939E+04  d E =-.434654E-03  mag=     7.0000
       N       E                     dE             d eps       ncg     rms          rms(c)
DAV:   1    -0.232080789293E+04    0.83744E-04   -0.64139E-03  5072   0.689E-02    0.296E-02
RMM:   2    -0.232080794248E+04   -0.49553E-04   -0.53484E-04  4426   0.144E-02    0.159E-02
RMM:   3    -0.232080794763E+04   -0.51538E-05   -0.61492E-05  2882   0.759E-03
 146 F= -.23416939E+04 E0= -.23416939E+04  d E =-.435847E-03  mag=     7.0000
       N       E                     dE             d eps       ncg     rms          rms(c)
DAV:   1    -0.232080713260E+04    0.80988E-03   -0.11981E-01  4456   0.282E-01    0.119E-01
RMM:   2    -0.232080817804E+04   -0.10454E-02   -0.11016E-02  5840   0.564E-02    0.851E-02
RMM:   3    -0.232080823559E+04   -0.57554E-04   -0.10315E-03  3529   0.207E-02    0.768E-02
RMM:   4    -0.232080818421E+04    0.51382E-04   -0.13484E-04  2959   0.673E-03    0.339E-02
RMM:   5    -0.232080817091E+04    0.13299E-04   -0.56881E-05  2991   0.555E-03    0.139E-02
RMM:   6    -0.232080817154E+04   -0.63260E-06   -0.14789E-05  2906   0.462E-03
 147 F= -.23416943E+04 E0= -.23416943E+04  d E =-.427083E-03  mag=     7.0000
       N       E                     dE             d eps       ncg     rms          rms(c)
DAV:   1    -0.232080779419E+04    0.37672E-03   -0.33555E-02  4480   0.149E-01    0.619E-02
RMM:   2    -0.232080808622E+04   -0.29204E-03   -0.30909E-03  5770   0.302E-02    0.398E-02
RMM:   3    -0.232080810493E+04   -0.18706E-04   -0.28653E-04  3004   0.124E-02    0.375E-02
RMM:   4    -0.232080809371E+04    0.11222E-04   -0.37091E-05  2908   0.371E-03    0.182E-02
RMM:   5    -0.232080808960E+04    0.41144E-05   -0.14146E-05  2900   0.288E-03
 148 F= -.23416943E+04 E0= -.23416943E+04  d E =-.453110E-03  mag=     7.0000
       N       E                     dE             d eps       ncg     rms          rms(c)
DAV:   1    -0.232080731350E+04    0.78020E-03   -0.12537E-01  4456   0.283E-01    0.121E-01
RMM:   2    -0.232080838600E+04   -0.10725E-02   -0.11301E-02  5953   0.569E-02    0.862E-02
RMM:   3    -0.232080844362E+04   -0.57618E-04   -0.10060E-03  3662   0.218E-02    0.786E-02
RMM:   4    -0.232080838958E+04    0.54031E-04   -0.13382E-04  2970   0.673E-03    0.313E-02
RMM:   5    -0.232080837834E+04    0.11242E-04   -0.48966E-05  3022   0.539E-03    0.135E-02
RMM:   6    -0.232080837945E+04   -0.11089E-05   -0.15979E-05  2905   0.464E-03
 149 F= -.23416948E+04 E0= -.23416948E+04  d E =-.496013E-03  mag=     7.0000
       N       E                     dE             d eps       ncg     rms          rms(c)
DAV:   1    -0.232080741034E+04    0.96800E-03   -0.10344E-01  4456   0.257E-01    0.110E-01
RMM:   2    -0.232080829001E+04   -0.87967E-03   -0.92921E-03  5912   0.507E-02    0.741E-02
RMM:   3    -0.232080834549E+04   -0.55480E-04   -0.85728E-04  3428   0.194E-02    0.694E-02
RMM:   4    -0.232080830477E+04    0.40722E-04   -0.11024E-04  2940   0.602E-03    0.293E-02
RMM:   5    -0.232080829529E+04    0.94747E-05   -0.39095E-05  2973   0.473E-03
 150 F= -.23416949E+04 E0= -.23416949E+04  d E =-.599390E-03  mag=     7.0000
