       N       E                     dE             d eps       ncg     rms          rms(c)
DAV:   1     0.131229589501E+05    0.13123E+05   -0.84359E+05  4528   0.144E+03
DAV:   2    -0.100623825455E+04   -0.14129E+05   -0.13502E+05  4936   0.331E+02
DAV:   3    -0.248398624198E+04   -0.14777E+04   -0.14591E+04  5536   0.115E+02
DAV:   4    -0.253025069660E+04   -0.46264E+02   -0.46012E+02  6728   0.293E+01
DAV:   5    -0.253107450089E+04   -0.82380E+00   -0.82187E+00  6160   0.342E+00    0.171E+02
RMM:   6    -0.149956435660E+04    0.10315E+04   -0.19635E+03  4467   0.386E+01    0.743E+01
RMM:   7    -0.167820639576E+04   -0.17864E+03   -0.31036E+02  5147   0.147E+01    0.616E+01
RMM:   8    -0.171366396685E+04   -0.35458E+02   -0.10490E+02  5371   0.903E+00    0.486E+01
RMM:   9    -0.175704152980E+04   -0.43378E+02   -0.61098E+01  4928   0.734E+00    0.346E+01
RMM:  10    -0.190239581302E+04   -0.14535E+03   -0.72407E+01  5047   0.813E+00    0.277E+01
RMM:  11    -0.198097723707E+04   -0.78581E+02   -0.33444E+01  4906   0.563E+00    0.236E+01
RMM:  12    -0.205871266200E+04   -0.77735E+02   -0.32192E+01  4970   0.463E+00    0.153E+01
RMM:  13    -0.216828834371E+04   -0.10958E+03   -0.67213E+01  4605   0.614E+00    0.123E+01
RMM:  14    -0.224526719749E+04   -0.76979E+02   -0.55439E+01  4971   0.558E+00    0.994E+00
RMM:  15    -0.229579328552E+04   -0.50526E+02   -0.45060E+01  4761   0.483E+00    0.688E+00
RMM:  16    -0.231144032976E+04   -0.15647E+02   -0.16338E+01  4950   0.316E+00    0.331E+00
RMM:  17    -0.231821714300E+04   -0.67768E+01   -0.71526E+00  4825   0.166E+00    0.206E+00
RMM:  18    -0.232092590324E+04   -0.27088E+01   -0.21881E+00  5006   0.107E+00    0.106E+00
RMM:  19    -0.232196129590E+04   -0.10354E+01   -0.65934E-01  4970   0.487E-01    0.568E-01
RMM:  20    -0.232222484077E+04   -0.26354E+00   -0.16001E-01  4829   0.295E-01    0.318E-01
RMM:  21    -0.232228123553E+04   -0.56395E-01   -0.36348E-02  4842   0.147E-01    0.201E-01
RMM:  22    -0.232230680401E+04   -0.25568E-01   -0.13701E-02  4581   0.937E-02    0.118E-01
RMM:  23    -0.232232258386E+04   -0.15780E-01   -0.64474E-03  4538   0.672E-02    0.869E-02
RMM:  24    -0.232232934915E+04   -0.67653E-02   -0.25061E-03  4677   0.430E-02    0.435E-02
RMM:  25    -0.232233513962E+04   -0.57905E-02   -0.20249E-03  4478   0.330E-02    0.378E-02
RMM:  26    -0.232233746646E+04   -0.23268E-02   -0.81122E-04  4267   0.249E-02    0.180E-02
RMM:  27    -0.232233840199E+04   -0.93553E-03   -0.34405E-04  4097   0.140E-02    0.138E-02
RMM:  28    -0.232233875072E+04   -0.34873E-03   -0.10335E-04  3738   0.105E-02    0.741E-03
RMM:  29    -0.232233892047E+04   -0.16975E-03   -0.44359E-05  3409   0.584E-03    0.370E-03
RMM:  30    -0.232233900229E+04   -0.81820E-04   -0.16652E-05  3000   0.453E-03    0.229E-03
RMM:  31    -0.232233903880E+04   -0.36513E-04   -0.94487E-06  2892   0.302E-03    0.115E-03
RMM:  32    -0.232233905057E+04   -0.11769E-04   -0.44649E-06  2574   0.257E-03    0.685E-04
RMM:  33    -0.232233905291E+04   -0.23369E-05   -0.22602E-06  2375   0.180E-03
   1 F= -.23437570E+04 E0= -.23437568E+04  d E =-.234376E+04  mag=     3.9968
       N       E                     dE             d eps       ncg     rms          rms(c)
DAV:   1    -0.232191085060E+04    0.42820E+00   -0.36078E+01  4960   0.400E+00    0.164E+00
RMM:   2    -0.232270335497E+04   -0.79250E+00   -0.79571E+00  6551   0.132E+00    0.186E+00
RMM:   3    -0.232270436419E+04   -0.10092E-02   -0.79077E-01  6111   0.467E-01    0.126E+00
RMM:   4    -0.232269670472E+04    0.76595E-02   -0.66561E-02  6214   0.977E-02    0.886E-01
RMM:   5    -0.232269093232E+04    0.57724E-02   -0.14238E-02  6152   0.532E-02    0.609E-01
RMM:   6    -0.232269069503E+04    0.23729E-03   -0.21821E-02  6015   0.626E-02    0.572E-01
RMM:   7    -0.232268645404E+04    0.42410E-02   -0.77496E-03  5570   0.427E-02    0.162E-01
RMM:   8    -0.232268646214E+04   -0.80946E-05   -0.83146E-04  4206   0.138E-02    0.778E-02
RMM:   9    -0.232268669207E+04   -0.22994E-03   -0.43934E-04  3758   0.143E-02    0.390E-02
RMM:  10    -0.232268682333E+04   -0.13126E-03   -0.16850E-04  3746   0.700E-03    0.192E-02
RMM:  11    -0.232268692580E+04   -0.10247E-03   -0.24382E-05  2984   0.517E-03    0.106E-02
RMM:  12    -0.232268700823E+04   -0.82432E-04   -0.18584E-05  2955   0.396E-03    0.570E-03
RMM:  13    -0.232268705271E+04   -0.44478E-04   -0.81004E-06  2851   0.347E-03    0.394E-03
RMM:  14    -0.232268708353E+04   -0.30824E-04   -0.72545E-06  2801   0.272E-03    0.254E-03
RMM:  15    -0.232268709591E+04   -0.12383E-04   -0.43487E-06  2668   0.258E-03    0.148E-03
RMM:  16    -0.232268709956E+04   -0.36469E-05   -0.24193E-06  2506   0.181E-03
   2 F= -.23441114E+04 E0= -.23441114E+04  d E =-.354449E+00  mag=     3.9998
       N       E                     dE             d eps       ncg     rms          rms(c)
DAV:   1    -0.232272527399E+04   -0.38178E-01   -0.36018E+00  4720   0.144E+00    0.700E-01
RMM:   2    -0.232277060818E+04   -0.45334E-01   -0.47356E-01  6343   0.405E-01    0.783E-01
RMM:   3    -0.232276603412E+04    0.45741E-02   -0.43063E-02  6005   0.128E-01    0.480E-01
RMM:   4    -0.232276466967E+04    0.13645E-02   -0.62773E-03  5718   0.357E-02    0.295E-01
RMM:   5    -0.232276398779E+04    0.68188E-03   -0.19420E-03  5680   0.212E-02    0.192E-01
RMM:   6    -0.232276365315E+04    0.33464E-03   -0.12484E-03  5288   0.204E-02    0.968E-02
RMM:   7    -0.232276349574E+04    0.15741E-03   -0.31061E-04  4307   0.110E-02    0.278E-02
RMM:   8    -0.232276348531E+04    0.10430E-04   -0.48074E-05  3014   0.587E-03    0.239E-02
RMM:   9    -0.232276347744E+04    0.78737E-05   -0.24209E-05  2919   0.406E-03
   3 F= -.23441891E+04 E0= -.23441891E+04  d E =-.777076E-01  mag=     3.9999
       N       E                     dE             d eps       ncg     rms          rms(c)
DAV:   1    -0.232273074724E+04    0.32738E-01   -0.54148E+00  4608   0.167E+00    0.665E-01
RMM:   2    -0.232281760499E+04   -0.86858E-01   -0.88757E-01  6531   0.474E-01    0.787E-01
RMM:   3    -0.232282020146E+04   -0.25965E-02   -0.91989E-02  6136   0.166E-01    0.554E-01
RMM:   4    -0.232281817672E+04    0.20247E-02   -0.92383E-03  5748   0.418E-02    0.237E-01
RMM:   5    -0.232281783169E+04    0.34504E-03   -0.20016E-03  5503   0.212E-02    0.215E-01
RMM:   6    -0.232281733975E+04    0.49194E-03   -0.18933E-03  5548   0.232E-02    0.113E-01
RMM:   7    -0.232281722695E+04    0.11280E-03   -0.52473E-04  4479   0.144E-02    0.786E-02
RMM:   8    -0.232281713985E+04    0.87091E-04   -0.10383E-04  3031   0.661E-03    0.259E-02
RMM:   9    -0.232281713015E+04    0.97008E-05   -0.35461E-05  2937   0.479E-03
   4 F= -.23442452E+04 E0= -.23442452E+04  d E =-.560909E-01  mag=     4.0000
       N       E                     dE             d eps       ncg     rms          rms(c)
DAV:   1    -0.232282490708E+04   -0.77672E-02   -0.91853E-01  4656   0.801E-01    0.308E-01
RMM:   2    -0.232283718595E+04   -0.12279E-01   -0.12618E-01  6319   0.205E-01    0.293E-01
RMM:   3    -0.232283781499E+04   -0.62904E-03   -0.12833E-02  5960   0.716E-02    0.262E-01
RMM:   4    -0.232283719622E+04    0.61877E-03   -0.13207E-03  4808   0.180E-02    0.866E-02
RMM:   5    -0.232283717969E+04    0.16531E-04   -0.38488E-04  4169   0.119E-02    0.809E-02
RMM:   6    -0.232283708183E+04    0.97864E-04   -0.22615E-04  4265   0.989E-03    0.309E-02
RMM:   7    -0.232283708327E+04   -0.14442E-05   -0.62650E-05  3054   0.693E-03
   5 F= -.23442654E+04 E0= -.23442654E+04  d E =-.201583E-01  mag=     4.0000
       N       E                     dE             d eps       ncg     rms          rms(c)
DAV:   1    -0.232270830442E+04    0.12878E+00   -0.12490E+01  4560   0.252E+00    0.988E-01
RMM:   2    -0.232288671766E+04   -0.17841E+00   -0.18056E+00  6669   0.675E-01    0.113E+00
RMM:   3    -0.232289395503E+04   -0.72374E-02   -0.19807E-01  6364   0.233E-01    0.766E-01
RMM:   4    -0.232289007958E+04    0.38754E-02   -0.18766E-02  5823   0.514E-02    0.321E-01
RMM:   5    -0.232288978102E+04    0.29855E-03   -0.33268E-03  5483   0.275E-02    0.278E-01
RMM:   6    -0.232288889886E+04    0.88216E-03   -0.19870E-03  5241   0.233E-02    0.125E-01
RMM:   7    -0.232288893920E+04   -0.40342E-04   -0.80259E-04  4674   0.158E-02    0.123E-01
RMM:   8    -0.232288876412E+04    0.17508E-03   -0.22030E-04  3265   0.861E-03    0.315E-02
RMM:   9    -0.232288875616E+04    0.79593E-05   -0.42326E-05  3057   0.416E-03
   6 F= -.23443181E+04 E0= -.23443181E+04  d E =-.527155E-01  mag=     4.0000
       N       E                     dE             d eps       ncg     rms          rms(c)
DAV:   1    -0.232289191196E+04   -0.31478E-02   -0.42688E-01  4672   0.492E-01    0.186E-01
RMM:   2    -0.232289754605E+04   -0.56341E-02   -0.56464E-02  6514   0.122E-01    0.209E-01
RMM:   3    -0.232289772062E+04   -0.17457E-03   -0.56412E-03  5284   0.429E-02    0.147E-01
RMM:   4    -0.232289758247E+04    0.13815E-03   -0.63219E-04  3291   0.108E-02    0.648E-02
RMM:   5    -0.232289756992E+04    0.12545E-04   -0.12810E-04  3130   0.714E-03    0.580E-02
RMM:   6    -0.232289753371E+04    0.36217E-04   -0.10920E-04  3369   0.719E-03    0.279E-02
RMM:   7    -0.232289753205E+04    0.16516E-05   -0.43912E-05  2946   0.582E-03
   7 F= -.23443272E+04 E0= -.23443272E+04  d E =-.913013E-02  mag=     4.0000
       N       E                     dE             d eps       ncg     rms          rms(c)
DAV:   1    -0.232288789317E+04    0.96405E-02   -0.12927E+00  4560   0.887E-01    0.358E-01
RMM:   2    -0.232291101421E+04   -0.23121E-01   -0.23714E-01  6643   0.235E-01    0.327E-01
RMM:   3    -0.232291255936E+04   -0.15452E-02   -0.23732E-02  5903   0.815E-02    0.291E-01
RMM:   4    -0.232291200469E+04    0.55467E-03   -0.27216E-03  4042   0.194E-02    0.128E-01
RMM:   5    -0.232291190253E+04    0.10215E-03   -0.35510E-04  3406   0.971E-03    0.950E-02
RMM:   6    -0.232291181312E+04    0.89419E-04   -0.35409E-04  3777   0.111E-02    0.531E-02
RMM:   7    -0.232291181943E+04   -0.63109E-05   -0.16493E-04  3279   0.833E-03    0.500E-02
RMM:   8    -0.232291178548E+04    0.33944E-04   -0.33553E-05  2920   0.526E-03    0.145E-02
RMM:   9    -0.232291178329E+04    0.21920E-05   -0.81734E-06  2768   0.231E-03
   8 F= -.23443415E+04 E0= -.23443415E+04  d E =-.142437E-01  mag=     4.0000
       N       E                     dE             d eps       ncg     rms          rms(c)
DAV:   1    -0.232283799005E+04    0.73795E-01   -0.46897E+00  4560   0.169E+00    0.697E-01
RMM:   2    -0.232292958929E+04   -0.91599E-01   -0.93366E-01  6675   0.473E-01    0.697E-01
RMM:   3    -0.232293490984E+04   -0.53206E-02   -0.97741E-02  6280   0.166E-01    0.555E-01
RMM:   4    -0.232293292724E+04    0.19826E-02   -0.10358E-02  5510   0.376E-02    0.243E-01
RMM:   5    -0.232293250042E+04    0.42682E-03   -0.13638E-03  4587   0.168E-02    0.174E-01
RMM:   6    -0.232293216756E+04    0.33287E-03   -0.10504E-03  4576   0.177E-02    0.955E-02
RMM:   7    -0.232293220847E+04   -0.40913E-04   -0.57759E-04  4163   0.139E-02    0.985E-02
RMM:   8    -0.232293208528E+04    0.12319E-03   -0.11601E-04  3213   0.708E-03    0.291E-02
RMM:   9    -0.232293207755E+04    0.77283E-05   -0.23942E-05  2920   0.349E-03
   9 F= -.23443616E+04 E0= -.23443616E+04  d E =-.201032E-01  mag=     4.0000
       N       E                     dE             d eps       ncg     rms          rms(c)
DAV:   1    -0.232289495009E+04    0.37135E-01   -0.22694E+00  4560   0.119E+00    0.506E-01
RMM:   2    -0.232294287555E+04   -0.47925E-01   -0.48583E-01  6670   0.335E-01    0.537E-01
RMM:   3    -0.232294521849E+04   -0.23429E-02   -0.49429E-02  6130   0.117E-01    0.413E-01
RMM:   4    -0.232294413797E+04    0.10805E-02   -0.55374E-03  4868   0.279E-02    0.169E-01
RMM:   5    -0.232294392114E+04    0.21683E-03   -0.66718E-04  3937   0.120E-02    0.126E-01
RMM:   6    -0.232294376051E+04    0.16062E-03   -0.55399E-04  3949   0.134E-02    0.740E-02
RMM:   7    -0.232294377183E+04   -0.11314E-04   -0.33827E-04  3661   0.111E-02    0.698E-02
RMM:   8    -0.232294370852E+04    0.63309E-04   -0.62413E-05  3037   0.608E-03    0.201E-02
RMM:   9    -0.232294370496E+04    0.35586E-05   -0.12343E-05  2852   0.282E-03
  10 F= -.23443729E+04 E0= -.23443729E+04  d E =-.113399E-01  mag=     4.0000
       N       E                     dE             d eps       ncg     rms          rms(c)
DAV:   1    -0.232290424476E+04    0.39464E-01   -0.21360E+00  4560   0.116E+00    0.500E-01
RMM:   2    -0.232295165484E+04   -0.47410E-01   -0.47859E-01  6666   0.331E-01    0.559E-01
RMM:   3    -0.232295364663E+04   -0.19918E-02   -0.48862E-02  6115   0.115E-01    0.398E-01
RMM:   4    -0.232295267414E+04    0.97249E-03   -0.53403E-03  4825   0.275E-02    0.164E-01
RMM:   5    -0.232295247006E+04    0.20408E-03   -0.63040E-04  3859   0.118E-02    0.124E-01
RMM:   6    -0.232295232239E+04    0.14767E-03   -0.49182E-04  3896   0.127E-02    0.762E-02
RMM:   7    -0.232295231919E+04    0.32057E-05   -0.33024E-04  3606   0.110E-02    0.671E-02
RMM:   8    -0.232295226199E+04    0.57193E-04   -0.56993E-05  2984   0.602E-03    0.196E-02
RMM:   9    -0.232295225889E+04    0.31027E-05   -0.11933E-05  2856   0.274E-03
  11 F= -.23443813E+04 E0= -.23443813E+04  d E =-.835795E-02  mag=     4.0000
       N       E                     dE             d eps       ncg     rms          rms(c)
DAV:   1    -0.232292908332E+04    0.23179E-01   -0.12372E+00  4560   0.899E-01    0.391E-01
RMM:   2    -0.232295782280E+04   -0.28739E-01   -0.28877E-01  6666   0.254E-01    0.458E-01
RMM:   3    -0.232295878468E+04   -0.96188E-03   -0.29091E-02  5948   0.890E-02    0.305E-01
RMM:   4    -0.232295824280E+04    0.54188E-03   -0.32458E-03  4149   0.216E-02    0.128E-01
RMM:   5    -0.232295811634E+04    0.12646E-03   -0.36885E-04  3383   0.970E-03    0.976E-02
RMM:   6    -0.232295803129E+04    0.85055E-04   -0.29288E-04  3503   0.101E-02    0.637E-02
RMM:   7    -0.232295801729E+04    0.13998E-04   -0.22156E-04  3337   0.948E-03    0.498E-02
RMM:   8    -0.232295798605E+04    0.31244E-04   -0.36337E-05  2926   0.528E-03    0.149E-02
RMM:   9    -0.232295798422E+04    0.18215E-05   -0.73042E-06  2767   0.238E-03
  12 F= -.23443868E+04 E0= -.23443868E+04  d E =-.552617E-02  mag=     4.0000
       N       E                     dE             d eps       ncg     rms          rms(c)
DAV:   1    -0.232295697844E+04    0.10076E-02   -0.13199E-01  4656   0.315E-01    0.133E-01
RMM:   2    -0.232296004099E+04   -0.30625E-02   -0.30452E-02  6552   0.863E-02    0.167E-01
RMM:   3    -0.232296007432E+04   -0.33332E-04   -0.30283E-03  4348   0.305E-02    0.973E-02
RMM:   4    -0.232296002210E+04    0.52218E-04   -0.34248E-04  3037   0.844E-03    0.452E-02
RMM:   5    -0.232296000648E+04    0.15622E-04   -0.47194E-05  2904   0.460E-03    0.342E-02
RMM:   6    -0.232295999632E+04    0.10154E-04   -0.34506E-05  2917   0.418E-03    0.226E-02
RMM:   7    -0.232295999357E+04    0.27541E-05   -0.27289E-05  2904   0.420E-03
  13 F= -.23443888E+04 E0= -.23443888E+04  d E =-.198424E-02  mag=     4.0000
       N       E                     dE             d eps       ncg     rms          rms(c)
DAV:   1    -0.232292676054E+04    0.33236E-01   -0.16154E+00  4528   0.104E+00    0.450E-01
RMM:   2    -0.232296500399E+04   -0.38243E-01   -0.38518E-01  6666   0.294E-01    0.522E-01
RMM:   3    -0.232296632047E+04   -0.13165E-02   -0.38702E-02  6075   0.103E-01    0.349E-01
RMM:   4    -0.232296562115E+04    0.69932E-03   -0.42897E-03  4592   0.248E-02    0.150E-01
RMM:   5    -0.232296545100E+04    0.17015E-03   -0.50349E-04  3581   0.108E-02    0.112E-01
RMM:   6    -0.232296534539E+04    0.10561E-03   -0.37121E-04  3722   0.111E-02    0.756E-02
RMM:   7    -0.232296531747E+04    0.27919E-04   -0.29488E-04  3527   0.107E-02    0.548E-02
RMM:   8    -0.232296527959E+04    0.37884E-04   -0.45875E-05  2963   0.562E-03    0.170E-02
RMM:   9    -0.232296527703E+04    0.25575E-05   -0.86337E-06  2826   0.257E-03
  14 F= -.23443939E+04 E0= -.23443939E+04  d E =-.510147E-02  mag=     4.0000
       N       E                     dE             d eps       ncg     rms          rms(c)
DAV:   1    -0.232296580262E+04   -0.52303E-03   -0.32777E-02  4720   0.165E-01    0.606E-02
RMM:   2    -0.232296633316E+04   -0.53054E-03   -0.53634E-03  6312   0.418E-02    0.657E-02
RMM:   3    -0.232296634352E+04   -0.10356E-04   -0.53441E-04  3051   0.148E-02    0.438E-02
RMM:   4    -0.232296633244E+04    0.11079E-04   -0.60574E-05  2970   0.473E-03    0.225E-02
RMM:   5    -0.232296633099E+04    0.14439E-05   -0.13296E-05  2840   0.248E-03
  15 F= -.23443950E+04 E0= -.23443950E+04  d E =-.107328E-02  mag=     4.0000
       N       E                     dE             d eps       ncg     rms          rms(c)
DAV:   1    -0.232296681129E+04   -0.47886E-03   -0.10790E-02  4614   0.961E-02    0.337E-02
RMM:   2    -0.232296694979E+04   -0.13850E-03   -0.13934E-03  5880   0.231E-02    0.324E-02
RMM:   3    -0.232296695302E+04   -0.32271E-05   -0.15449E-04  3000   0.896E-03    0.221E-02
RMM:   4    -0.232296694809E+04    0.49333E-05   -0.15418E-05  2916   0.317E-03
  16 F= -.23443956E+04 E0= -.23443956E+04  d E =-.627273E-03  mag=     4.0000
       N       E                     dE             d eps       ncg     rms          rms(c)
DAV:   1    -0.232296730049E+04   -0.34747E-03   -0.95408E-02  4560   0.274E-01    0.942E-02
RMM:   2    -0.232296865533E+04   -0.13548E-02   -0.13945E-02  6419   0.666E-02    0.776E-02
RMM:   3    -0.232296873303E+04   -0.77695E-04   -0.14473E-03  3497   0.230E-02    0.584E-02
RMM:   4    -0.232296870166E+04    0.31365E-04   -0.14955E-04  3003   0.729E-03    0.313E-02
RMM:   5    -0.232296870448E+04   -0.28166E-05   -0.34693E-05  2944   0.402E-03
  17 F= -.23443974E+04 E0= -.23443974E+04  d E =-.180939E-02  mag=     4.0000
       N       E                     dE             d eps       ncg     rms          rms(c)
DAV:   1    -0.232296644888E+04    0.22528E-02   -0.38261E-01  4528   0.547E-01    0.195E-01
RMM:   2    -0.232297208101E+04   -0.56321E-02   -0.56085E-02  6530   0.133E-01    0.237E-01
RMM:   3    -0.232297213171E+04   -0.50698E-04   -0.55739E-03  5328   0.429E-02    0.143E-01
RMM:   4    -0.232297202902E+04    0.10268E-03   -0.63417E-04  3210   0.112E-02    0.753E-02
RMM:   5    -0.232297201480E+04    0.14224E-04   -0.14395E-04  3109   0.734E-03    0.635E-02
RMM:   6    -0.232297197588E+04    0.38920E-04   -0.91814E-05  3138   0.685E-03    0.270E-02
RMM:   7    -0.232297197131E+04    0.45675E-05   -0.33776E-05  2953   0.527E-03
  18 F= -.23444008E+04 E0= -.23444008E+04  d E =-.336578E-02  mag=     4.0000
       N       E                     dE             d eps       ncg     rms          rms(c)
DAV:   1    -0.232297129210E+04    0.68378E-03   -0.19750E-01  4544   0.392E-01    0.137E-01
RMM:   2    -0.232297409722E+04   -0.28051E-02   -0.28918E-02  6496   0.950E-02    0.124E-01
RMM:   3    -0.232297426734E+04   -0.17012E-03   -0.29113E-03  4398   0.323E-02    0.106E-01
RMM:   4    -0.232297419772E+04    0.69621E-04   -0.31740E-04  3020   0.892E-03    0.499E-02
RMM:   5    -0.232297419907E+04   -0.13479E-05   -0.68339E-05  2935   0.509E-03
  19 F= -.23444031E+04 E0= -.23444031E+04  d E =-.227525E-02  mag=     4.0000
       N       E                     dE             d eps       ncg     rms          rms(c)
DAV:   1    -0.232297463096E+04   -0.43324E-03   -0.49214E-02  4624   0.197E-01    0.727E-02
RMM:   2    -0.232297530650E+04   -0.67554E-03   -0.69881E-03  6298   0.461E-02    0.579E-02
RMM:   3    -0.232297536893E+04   -0.62437E-04   -0.81718E-04  3206   0.180E-02    0.538E-02
RMM:   4    -0.232297534110E+04    0.27834E-04   -0.80232E-05  2948   0.624E-03    0.228E-02
RMM:   5    -0.232297534794E+04   -0.68395E-05   -0.25427E-05  2943   0.322E-03
  20 F= -.23444042E+04 E0= -.23444042E+04  d E =-.118961E-02  mag=     4.0000
       N       E                     dE             d eps       ncg     rms          rms(c)
DAV:   1    -0.232297535821E+04   -0.17108E-04   -0.11213E-01  4544   0.290E-01    0.106E-01
RMM:   2    -0.232297693904E+04   -0.15808E-02   -0.16054E-02  6429   0.702E-02    0.112E-01
RMM:   3    -0.232297701396E+04   -0.74925E-04   -0.16357E-03  3650   0.238E-02    0.879E-02
RMM:   4    -0.232297696856E+04    0.45397E-04   -0.18703E-04  2991   0.745E-03    0.391E-02
RMM:   5    -0.232297696904E+04   -0.47304E-06   -0.45684E-05  2914   0.417E-03
  21 F= -.23444059E+04 E0= -.23444059E+04  d E =-.169937E-02  mag=     4.0000
       N       E                     dE             d eps       ncg     rms          rms(c)
DAV:   1    -0.232297731488E+04   -0.34631E-03   -0.66220E-02  4544   0.221E-01    0.812E-02
RMM:   2    -0.232297819681E+04   -0.88193E-03   -0.92213E-03  6311   0.521E-02    0.607E-02
RMM:   3    -0.232297828675E+04   -0.89936E-04   -0.10297E-03  3249   0.193E-02    0.646E-02
RMM:   4    -0.232297825364E+04    0.33111E-04   -0.10595E-04  2953   0.654E-03    0.265E-02
RMM:   5    -0.232297825538E+04   -0.17434E-05   -0.29365E-05  2888   0.338E-03
  22 F= -.23444073E+04 E0= -.23444073E+04  d E =-.136098E-02  mag=     4.0000
       N       E                     dE             d eps       ncg     rms          rms(c)
DAV:   1    -0.232297792987E+04    0.32377E-03   -0.15785E-01  4544   0.339E-01    0.122E-01
RMM:   2    -0.232298002902E+04   -0.20992E-02   -0.22060E-02  6463   0.809E-02    0.814E-02
RMM:   3    -0.232298022951E+04   -0.20049E-03   -0.23591E-03  3837   0.290E-02    0.815E-02
RMM:   4    -0.232298017762E+04    0.51890E-04   -0.25015E-04  3058   0.887E-03    0.397E-02
RMM:   5    -0.232298017136E+04    0.62695E-05   -0.50367E-05  3005   0.476E-03
  23 F= -.23444093E+04 E0= -.23444093E+04  d E =-.201395E-02  mag=     4.0000
       N       E                     dE             d eps       ncg     rms          rms(c)
DAV:   1    -0.232298015030E+04    0.27328E-04   -0.12333E-01  4544   0.299E-01    0.113E-01
RMM:   2    -0.232298182617E+04   -0.16759E-02   -0.16884E-02  6421   0.705E-02    0.120E-01
RMM:   3    -0.232298190002E+04   -0.73851E-04   -0.17594E-03  3740   0.247E-02    0.953E-02
RMM:   4    -0.232298184185E+04    0.58170E-04   -0.19629E-04  2977   0.773E-03    0.391E-02
RMM:   5    -0.232298184288E+04   -0.10246E-05   -0.55506E-05  2963   0.473E-03
  24 F= -.23444111E+04 E0= -.23444111E+04  d E =-.177648E-02  mag=     4.0000
       N       E                     dE             d eps       ncg     rms          rms(c)
DAV:   1    -0.232298186914E+04   -0.27285E-04   -0.12578E-01  4544   0.300E-01    0.110E-01
RMM:   2    -0.232298342585E+04   -0.15567E-02   -0.16353E-02  6460   0.694E-02    0.788E-02
RMM:   3    -0.232298358823E+04   -0.16237E-03   -0.17349E-03  3553   0.248E-02    0.926E-02
RMM:   4    -0.232298353150E+04    0.56726E-04   -0.19356E-04  2975   0.774E-03    0.395E-02
RMM:   5    -0.232298353779E+04   -0.62906E-05   -0.57565E-05  2917   0.451E-03
  25 F= -.23444129E+04 E0= -.23444129E+04  d E =-.181690E-02  mag=     4.0000
       N       E                     dE             d eps       ncg     rms          rms(c)
DAV:   1    -0.232297816566E+04    0.53658E-02   -0.66231E-01  4516   0.685E-01    0.251E-01
RMM:   2    -0.232298657247E+04   -0.84068E-02   -0.88047E-02  6525   0.160E-01    0.185E-01
RMM:   3    -0.232298738300E+04   -0.81053E-03   -0.90617E-03  5495   0.551E-02    0.209E-01
RMM:   4    -0.232298709959E+04    0.28341E-03   -0.10160E-03  3342   0.140E-02    0.907E-02
RMM:   5    -0.232298711380E+04   -0.14218E-04   -0.26277E-04  3207   0.927E-03    0.766E-02
RMM:   6    -0.232298707431E+04    0.39490E-04   -0.15353E-04  3214   0.791E-03    0.467E-02
RMM:   7    -0.232298705236E+04    0.21953E-04   -0.53785E-05  2963   0.579E-03    0.217E-02
RMM:   8    -0.232298704576E+04    0.66013E-05   -0.11271E-05  2879   0.324E-03
  26 F= -.23444167E+04 E0= -.23444167E+04  d E =-.374604E-02  mag=     4.0000
       N       E                     dE             d eps       ncg     rms          rms(c)
DAV:   1    -0.232298754872E+04   -0.49636E-03   -0.40892E-02  4696   0.170E-01    0.631E-02
RMM:   2    -0.232298799550E+04   -0.44678E-03   -0.46915E-03  6284   0.391E-02    0.409E-02
RMM:   3    -0.232298804119E+04   -0.45696E-04   -0.46730E-04  3103   0.134E-02    0.486E-02
RMM:   4    -0.232298802245E+04    0.18745E-04   -0.58393E-05  2941   0.493E-03    0.258E-02
RMM:   5    -0.232298802405E+04   -0.16042E-05   -0.20622E-05  2840   0.266E-03
  27 F= -.23444177E+04 E0= -.23444177E+04  d E =-.103299E-02  mag=     4.0000
       N       E                     dE             d eps       ncg     rms          rms(c)
DAV:   1    -0.232298230326E+04    0.57192E-02   -0.70540E-01  4516   0.697E-01    0.258E-01
RMM:   2    -0.232299092387E+04   -0.86206E-02   -0.90279E-02  6520   0.162E-01    0.190E-01
RMM:   3    -0.232299180731E+04   -0.88344E-03   -0.91133E-03  5523   0.546E-02    0.230E-01
RMM:   4    -0.232299144657E+04    0.36074E-03   -0.10583E-03  3403   0.143E-02    0.916E-02
RMM:   5    -0.232299142508E+04    0.21484E-04   -0.24307E-04  3356   0.928E-03    0.552E-02
RMM:   6    -0.232299141331E+04    0.11766E-04   -0.15431E-04  3219   0.847E-03    0.356E-02
RMM:   7    -0.232299139434E+04    0.18976E-04   -0.25666E-05  2914   0.488E-03    0.108E-02
RMM:   8    -0.232299139356E+04    0.77917E-06   -0.48454E-06  2818   0.224E-03
  28 F= -.23444213E+04 E0= -.23444213E+04  d E =-.361957E-02  mag=     4.0000
       N       E                     dE             d eps       ncg     rms          rms(c)
DAV:   1    -0.232299116767E+04    0.22667E-03   -0.90769E-03  4800   0.955E-02    0.302E-02
RMM:   2    -0.232299129968E+04   -0.13200E-03   -0.14024E-03  5891   0.231E-02    0.218E-02
RMM:   3    -0.232299130915E+04   -0.94738E-05   -0.13990E-04  2925   0.846E-03    0.218E-02
RMM:   4    -0.232299130636E+04    0.27876E-05   -0.15354E-05  2861   0.273E-03
  29 F= -.23444212E+04 E0= -.23444212E+04  d E =0.117921E-03  mag=     4.0000
       N       E                     dE             d eps       ncg     rms          rms(c)
DAV:   1    -0.232299175233E+04   -0.44318E-03   -0.36349E-02  4548   0.152E-01    0.579E-02
RMM:   2    -0.232299213404E+04   -0.38171E-03   -0.40322E-03  6092   0.356E-02    0.389E-02
RMM:   3    -0.232299217222E+04   -0.38182E-04   -0.39987E-04  3090   0.125E-02    0.482E-02
RMM:   4    -0.232299215711E+04    0.15117E-04   -0.48209E-05  2932   0.428E-03    0.212E-02
RMM:   5    -0.232299215691E+04    0.19823E-06   -0.13978E-05  2792   0.233E-03
  30 F= -.23444221E+04 E0= -.23444221E+04  d E =-.899897E-03  mag=     4.0000
       N       E                     dE             d eps       ncg     rms          rms(c)
DAV:   1    -0.232299225922E+04   -0.10211E-03   -0.12120E-01  4548   0.279E-01    0.107E-01
RMM:   2    -0.232299355632E+04   -0.12971E-02   -0.13558E-02  6400   0.641E-02    0.824E-02
RMM:   3    -0.232299369081E+04   -0.13449E-03   -0.14003E-03  3515   0.220E-02    0.980E-02
RMM:   4    -0.232299362318E+04    0.67628E-04   -0.16301E-04  2977   0.714E-03    0.380E-02
RMM:   5    -0.232299362433E+04   -0.11416E-05   -0.52199E-05  2950   0.438E-03
  31 F= -.23444237E+04 E0= -.23444237E+04  d E =-.157126E-02  mag=     4.0000
       N       E                     dE             d eps       ncg     rms          rms(c)
DAV:   1    -0.232299256883E+04    0.10544E-02   -0.28179E-01  4548   0.426E-01    0.163E-01
RMM:   2    -0.232299559018E+04   -0.30214E-02   -0.31437E-02  6436   0.978E-02    0.130E-01
RMM:   3    -0.232299589061E+04   -0.30043E-03   -0.32423E-03  4656   0.334E-02    0.149E-01
RMM:   4    -0.232299573132E+04    0.15929E-03   -0.37788E-04  3070   0.945E-03    0.577E-02
RMM:   5    -0.232299573737E+04   -0.60465E-05   -0.12362E-04  3075   0.673E-03    0.431E-02
RMM:   6    -0.232299571815E+04    0.19218E-04   -0.65653E-05  2982   0.581E-03    0.178E-02
RMM:   7    -0.232299571439E+04    0.37633E-05   -0.84236E-06  2853   0.292E-03
  32 F= -.23444259E+04 E0= -.23444259E+04  d E =-.224130E-02  mag=     4.0000
       N       E                     dE             d eps       ncg     rms          rms(c)
DAV:   1    -0.232299621344E+04   -0.49529E-03   -0.37127E-02  4624   0.154E-01    0.580E-02
RMM:   2    -0.232299650962E+04   -0.29618E-03   -0.30539E-03  6122   0.340E-02    0.469E-02
RMM:   3    -0.232299653798E+04   -0.28355E-04   -0.30262E-04  3132   0.116E-02    0.531E-02
RMM:   4    -0.232299651435E+04    0.23627E-04   -0.40603E-05  2922   0.449E-03    0.210E-02
RMM:   5    -0.232299651904E+04   -0.46884E-05   -0.19680E-05  2837   0.270E-03
  33 F= -.23444268E+04 E0= -.23444268E+04  d E =-.865274E-03  mag=     4.0000
       N       E                     dE             d eps       ncg     rms          rms(c)
DAV:   1    -0.232299253262E+04    0.39817E-02   -0.69188E-01  4548   0.656E-01    0.252E-01
RMM:   2    -0.232299936596E+04   -0.68333E-02   -0.70916E-02  6502   0.149E-01    0.208E-01
RMM:   3    -0.232300002455E+04   -0.65858E-03   -0.70901E-03  5451   0.487E-02    0.235E-01
RMM:   4    -0.232299960295E+04    0.42160E-03   -0.84934E-04  3455   0.137E-02    0.842E-02
RMM:   5    -0.232299960504E+04   -0.20914E-05   -0.24663E-04  3468   0.924E-03    0.552E-02
RMM:   6    -0.232299959496E+04    0.10079E-04   -0.15800E-04  3244   0.813E-03    0.413E-02
RMM:   7    -0.232299957186E+04    0.23098E-04   -0.26540E-05  2912   0.451E-03    0.136E-02
RMM:   8    -0.232299956949E+04    0.23757E-05   -0.63359E-06  2784   0.232E-03
  34 F= -.23444301E+04 E0= -.23444301E+04  d E =-.328419E-02  mag=     4.0000
       N       E                     dE             d eps       ncg     rms          rms(c)
DAV:   1    -0.232299672446E+04    0.28474E-02   -0.14108E-01  4516   0.306E-01    0.115E-01
RMM:   2    -0.232299828278E+04   -0.15583E-02   -0.16331E-02  6429   0.704E-02    0.898E-02
RMM:   3    -0.232299843919E+04   -0.15641E-03   -0.16614E-03  3700   0.239E-02    0.106E-01
RMM:   4    -0.232299835753E+04    0.81661E-04   -0.19521E-04  2986   0.762E-03    0.401E-02
RMM:   5    -0.232299835197E+04    0.55591E-05   -0.50644E-05  2982   0.452E-03
  35 F= -.23444287E+04 E0= -.23444287E+04  d E =0.133597E-02  mag=     4.0000
       N       E                     dE             d eps       ncg     rms          rms(c)
DAV:   1    -0.232299882619E+04   -0.46866E-03   -0.36300E-02  4528   0.141E-01    0.566E-02
RMM:   2    -0.232299911264E+04   -0.28645E-03   -0.29733E-03  5891   0.321E-02    0.496E-02
RMM:   3    -0.232299913020E+04   -0.17562E-04   -0.33202E-04  3102   0.116E-02    0.460E-02
RMM:   4    -0.232299911624E+04    0.13968E-04   -0.37317E-05  2881   0.422E-03    0.233E-02
RMM:   5    -0.232299911548E+04    0.75340E-06   -0.17781E-05  2565   0.253E-03
  36 F= -.23444295E+04 E0= -.23444295E+04  d E =-.808153E-03  mag=     4.0000
       N       E                     dE             d eps       ncg     rms          rms(c)
DAV:   1    -0.232299911312E+04    0.31165E-05   -0.87962E-06  3364   0.481E-03    0.675E-03
RMM:   2    -0.232299911624E+04   -0.31259E-05   -0.68156E-06  2047   0.193E-03
  37 F= -.23444295E+04 E0= -.23444295E+04  d E =-.702493E-06  mag=     4.0000
       N       E                     dE             d eps       ncg     rms          rms(c)
DAV:   1    -0.232299900824E+04    0.10488E-03   -0.14375E-03  4322   0.341E-02    0.130E-02
RMM:   2    -0.232299903377E+04   -0.25537E-04   -0.24656E-04  3880   0.876E-03    0.190E-02
RMM:   3    -0.232299903193E+04    0.18383E-05   -0.28280E-05  2403   0.459E-03
  38 F= -.23444294E+04 E0= -.23444294E+04  d E =0.787960E-04  mag=     4.0000
       N       E                     dE             d eps       ncg     rms          rms(c)
DAV:   1    -0.232299914893E+04   -0.11516E-03   -0.19435E-03  4320   0.354E-02    0.157E-02
RMM:   2    -0.232299918249E+04   -0.33561E-04   -0.28993E-04  4111   0.101E-02    0.246E-02
RMM:   3    -0.232299917553E+04    0.69652E-05   -0.31481E-05  2571   0.487E-03
  39 F= -.23444296E+04 E0= -.23444296E+04  d E =-.168279E-03  mag=     4.0000
       N       E                     dE             d eps       ncg     rms          rms(c)
DAV:   1    -0.232299940564E+04   -0.22315E-03   -0.11476E-02  4522   0.834E-02    0.382E-02
RMM:   2    -0.232299956868E+04   -0.16304E-03   -0.15737E-03  5521   0.229E-02    0.423E-02
RMM:   3    -0.232299955619E+04    0.12486E-04   -0.15765E-04  2958   0.824E-03    0.212E-02
RMM:   4    -0.232299955328E+04    0.29136E-05   -0.19526E-05  2883   0.298E-03
  40 F= -.23444300E+04 E0= -.23444300E+04  d E =-.420737E-03  mag=     4.0000
       N       E                     dE             d eps       ncg     rms          rms(c)
DAV:   1    -0.232299975901E+04   -0.20282E-03   -0.82439E-03  4416   0.696E-02    0.349E-02
RMM:   2    -0.232299987169E+04   -0.11268E-03   -0.10662E-03  5220   0.183E-02    0.454E-02
RMM:   3    -0.232299986704E+04    0.46504E-05   -0.11543E-04  2941   0.683E-03    0.276E-02
RMM:   4    -0.232299986530E+04    0.17358E-05   -0.17068E-05  2778   0.251E-03
  41 F= -.23444304E+04 E0= -.23444304E+04  d E =-.358018E-03  mag=     4.0000
       N       E                     dE             d eps       ncg     rms          rms(c)
DAV:   1    -0.232300002754E+04   -0.16051E-03   -0.68304E-03  4402   0.640E-02    0.293E-02
RMM:   2    -0.232300012104E+04   -0.93497E-04   -0.98618E-04  5139   0.177E-02    0.184E-02
RMM:   3    -0.232300012844E+04   -0.74024E-05   -0.10546E-04  2912   0.706E-03    0.139E-02
RMM:   4    -0.232300012799E+04    0.44829E-06   -0.11857E-05  2665   0.249E-03
  42 F= -.23444307E+04 E0= -.23444307E+04  d E =-.300759E-03  mag=     4.0000
       N       E                     dE             d eps       ncg     rms          rms(c)
DAV:   1    -0.232300033255E+04   -0.20411E-03   -0.20399E-02  4528   0.106E-01    0.461E-02
RMM:   2    -0.232300058964E+04   -0.25709E-03   -0.26552E-03  5685   0.279E-02    0.342E-02
RMM:   3    -0.232300061141E+04   -0.21771E-04   -0.26720E-04  3003   0.102E-02    0.367E-02
RMM:   4    -0.232300060160E+04    0.98145E-05   -0.33660E-05  2904   0.361E-03
  43 F= -.23444312E+04 E0= -.23444312E+04  d E =-.544248E-03  mag=     4.0000
       N       E                     dE             d eps       ncg     rms          rms(c)
DAV:   1    -0.232300075072E+04   -0.13930E-03   -0.38453E-02  4510   0.145E-01    0.665E-02
RMM:   2    -0.232300123205E+04   -0.48134E-03   -0.48692E-03  6004   0.378E-02    0.611E-02
RMM:   3    -0.232300126871E+04   -0.36652E-04   -0.50172E-04  3089   0.131E-02    0.626E-02
RMM:   4    -0.232300124130E+04    0.27406E-04   -0.63245E-05  2942   0.460E-03    0.250E-02
RMM:   5    -0.232300124631E+04   -0.50084E-05   -0.24133E-05  2768   0.249E-03
  44 F= -.23444320E+04 E0= -.23444320E+04  d E =-.740011E-03  mag=     4.0000
       N       E                     dE             d eps       ncg     rms          rms(c)
DAV:   1    -0.232300129834E+04   -0.57045E-04   -0.38490E-02  4516   0.147E-01    0.631E-02
RMM:   2    -0.232300183769E+04   -0.53934E-03   -0.53404E-03  6065   0.399E-02    0.614E-02
RMM:   3    -0.232300184442E+04   -0.67349E-05   -0.52912E-04  3170   0.137E-02    0.439E-02
RMM:   4    -0.232300183218E+04    0.12241E-04   -0.63502E-05  2964   0.471E-03    0.313E-02
RMM:   5    -0.232300182867E+04    0.35166E-05   -0.20396E-05  2715   0.232E-03
  45 F= -.23444327E+04 E0= -.23444327E+04  d E =-.677243E-03  mag=     4.0000
       N       E                     dE             d eps       ncg     rms          rms(c)
DAV:   1    -0.232299251288E+04    0.93193E-02   -0.50490E-01  4516   0.537E-01    0.231E-01
RMM:   2    -0.232299990832E+04   -0.73954E-02   -0.73147E-02  6642   0.147E-01    0.224E-01
RMM:   3    -0.232299991436E+04   -0.60464E-05   -0.69910E-03  5314   0.485E-02    0.144E-01
RMM:   4    -0.232299978945E+04    0.12492E-03   -0.83689E-04  3449   0.123E-02    0.117E-01
RMM:   5    -0.232299972050E+04    0.68948E-04   -0.24403E-04  3014   0.742E-03    0.770E-02
RMM:   6    -0.232299969379E+04    0.26713E-04   -0.14777E-04  3128   0.691E-03    0.382E-02
RMM:   7    -0.232299967835E+04    0.15434E-04   -0.52253E-05  2885   0.520E-03    0.178E-02
RMM:   8    -0.232299967335E+04    0.50045E-05   -0.62642E-06  2642   0.243E-03
  46 F= -.23444301E+04 E0= -.23444301E+04  d E =0.252389E-02  mag=     4.0000
       N       E                     dE             d eps       ncg     rms          rms(c)
DAV:   1    -0.232299994816E+04   -0.26981E-03   -0.59710E-03  4448   0.590E-02    0.210E-02
RMM:   2    -0.232299998435E+04   -0.36194E-04   -0.39927E-04  4909   0.139E-02    0.171E-02
RMM:   3    -0.232299998728E+04   -0.29270E-05   -0.38552E-05  2899   0.514E-03
  47 F= -.23444305E+04 E0= -.23444305E+04  d E =-.319913E-03  mag=     4.0000
       N       E                     dE             d eps       ncg     rms          rms(c)
DAV:   1    -0.232300025410E+04   -0.26974E-03   -0.58936E-03  4332   0.521E-02    0.266E-02
RMM:   2    -0.232300029882E+04   -0.44727E-04   -0.48507E-04  4566   0.137E-02    0.188E-02
RMM:   3    -0.232300030190E+04   -0.30800E-05   -0.52840E-05  2914   0.562E-03
  48 F= -.23444308E+04 E0= -.23444308E+04  d E =-.335353E-03  mag=     4.0000
       N       E                     dE             d eps       ncg     rms          rms(c)
DAV:   1    -0.232300066582E+04   -0.36700E-03   -0.14899E-02  4500   0.823E-02    0.393E-02
RMM:   2    -0.232300077986E+04   -0.11403E-03   -0.12212E-03  5337   0.209E-02    0.279E-02
RMM:   3    -0.232300079386E+04   -0.14007E-04   -0.12575E-04  2961   0.719E-03    0.359E-02
RMM:   4    -0.232300078529E+04    0.85747E-05   -0.19121E-05  2828   0.294E-03
  49 F= -.23444313E+04 E0= -.23444313E+04  d E =-.528685E-03  mag=     4.0000
       N       E                     dE             d eps       ncg     rms          rms(c)
DAV:   1    -0.232300132801E+04   -0.53414E-03   -0.42568E-02  4516   0.139E-01    0.599E-02
RMM:   2    -0.232300160882E+04   -0.28082E-03   -0.29169E-03  6033   0.332E-02    0.544E-02
RMM:   3    -0.232300163019E+04   -0.21372E-04   -0.28542E-04  3080   0.101E-02    0.569E-02
RMM:   4    -0.232300160502E+04    0.25177E-04   -0.38775E-05  2928   0.409E-03    0.190E-02
RMM:   5    -0.232300161019E+04   -0.51750E-05   -0.17547E-05  2799   0.238E-03
  50 F= -.23444322E+04 E0= -.23444322E+04  d E =-.877675E-03  mag=     4.0000
       N       E                     dE             d eps       ncg     rms          rms(c)
DAV:   1    -0.232300216912E+04   -0.56411E-03   -0.49221E-02  4516   0.152E-01    0.593E-02
RMM:   2    -0.232300245571E+04   -0.28658E-03   -0.29634E-03  5980   0.353E-02    0.565E-02
RMM:   3    -0.232300246728E+04   -0.11574E-04   -0.29315E-04  3143   0.109E-02    0.518E-02
RMM:   4    -0.232300245045E+04    0.16830E-04   -0.41397E-05  2954   0.434E-03    0.235E-02
RMM:   5    -0.232300245012E+04    0.32876E-06   -0.21526E-05  2808   0.298E-03
  51 F= -.23444331E+04 E0= -.23444331E+04  d E =-.883538E-03  mag=     4.0000
       N       E                     dE             d eps       ncg     rms          rms(c)
DAV:   1    -0.232300129866E+04    0.11518E-02   -0.47936E-02  4516   0.148E-01    0.615E-02
RMM:   2    -0.232300161691E+04   -0.31825E-03   -0.33174E-03  6015   0.360E-02    0.575E-02
RMM:   3    -0.232300162943E+04   -0.12515E-04   -0.30840E-04  3151   0.107E-02    0.546E-02
RMM:   4    -0.232300160908E+04    0.20347E-04   -0.45716E-05  2927   0.429E-03    0.250E-02
RMM:   5    -0.232300160804E+04    0.10397E-05   -0.20933E-05  2710   0.278E-03
  52 F= -.23444322E+04 E0= -.23444322E+04  d E =0.899264E-03  mag=     4.0000
       N       E                     dE             d eps       ncg     rms          rms(c)
DAV:   1    -0.232300225984E+04   -0.65076E-03   -0.75518E-02  4516   0.178E-01    0.755E-02
RMM:   2    -0.232300268646E+04   -0.42662E-03   -0.44754E-03  6108   0.426E-02    0.741E-02
RMM:   3    -0.232300269426E+04   -0.77926E-05   -0.42335E-04  3302   0.125E-02    0.650E-02
RMM:   4    -0.232300266957E+04    0.24688E-04   -0.65992E-05  2978   0.497E-03    0.313E-02
RMM:   5    -0.232300266574E+04    0.38270E-05   -0.34804E-05  2909   0.366E-03
  53 F= -.23444333E+04 E0= -.23444333E+04  d E =-.112267E-02  mag=     4.0000
       N       E                     dE             d eps       ncg     rms          rms(c)
DAV:   1    -0.232300299983E+04   -0.33026E-03   -0.12315E-02  4452   0.756E-02    0.302E-02
RMM:   2    -0.232300307175E+04   -0.71923E-04   -0.73404E-04  5245   0.176E-02    0.287E-02
RMM:   3    -0.232300307323E+04   -0.14752E-05   -0.81803E-05  2922   0.627E-03
  54 F= -.23444337E+04 E0= -.23444337E+04  d E =-.435374E-03  mag=     4.0000
       N       E                     dE             d eps       ncg     rms          rms(c)
DAV:   1    -0.232300182711E+04    0.12446E-02   -0.59741E-02  4516   0.161E-01    0.631E-02
RMM:   2    -0.232300218762E+04   -0.36051E-03   -0.35360E-03  6002   0.382E-02    0.790E-02
RMM:   3    -0.232300216636E+04    0.21259E-04   -0.33634E-04  3215   0.113E-02    0.478E-02
RMM:   4    -0.232300215144E+04    0.14918E-04   -0.43680E-05  2968   0.424E-03    0.228E-02
RMM:   5    -0.232300215260E+04   -0.11546E-05   -0.21100E-05  2698   0.288E-03
  55 F= -.23444327E+04 E0= -.23444327E+04  d E =0.987030E-03  mag=     4.0000
       N       E                     dE             d eps       ncg     rms          rms(c)
DAV:   1    -0.232300241199E+04   -0.26055E-03   -0.73830E-03  4376   0.560E-02    0.251E-02
RMM:   2    -0.232300246216E+04   -0.50163E-04   -0.47632E-04  4523   0.140E-02    0.356E-02
RMM:   3    -0.232300245139E+04    0.10773E-04   -0.47687E-05  2762   0.517E-03    0.158E-02
RMM:   4    -0.232300245094E+04    0.44842E-06   -0.83987E-06  2349   0.206E-03
  56 F= -.23444331E+04 E0= -.23444331E+04  d E =-.315221E-03  mag=     4.0000
       N       E                     dE             d eps       ncg     rms          rms(c)
DAV:   1    -0.232300233948E+04    0.11191E-03   -0.10494E-03  4186   0.226E-02    0.819E-03
RMM:   2    -0.232300234868E+04   -0.92036E-05   -0.73681E-05  2986   0.549E-03
  57 F= -.23444330E+04 E0= -.23444330E+04  d E =0.107213E-03  mag=     4.0000
       N       E                     dE             d eps       ncg     rms          rms(c)
DAV:   1    -0.232300261849E+04   -0.27901E-03   -0.68776E-03  4276   0.536E-02    0.220E-02
RMM:   2    -0.232300266008E+04   -0.41593E-04   -0.37836E-04  4474   0.127E-02    0.342E-02
RMM:   3    -0.232300265327E+04    0.68135E-05   -0.41018E-05  2700   0.498E-03
  58 F= -.23444333E+04 E0= -.23444333E+04  d E =-.324358E-03  mag=     4.0000
       N       E                     dE             d eps       ncg     rms          rms(c)
DAV:   1    -0.232300295224E+04   -0.29215E-03   -0.80908E-03  4400   0.561E-02    0.296E-02
RMM:   2    -0.232300299547E+04   -0.43233E-04   -0.45375E-04  4510   0.141E-02    0.276E-02
RMM:   3    -0.232300299475E+04    0.72255E-06   -0.55286E-05  2958   0.564E-03
  59 F= -.23444336E+04 E0= -.23444336E+04  d E =-.361157E-03  mag=     4.0000
       N       E                     dE             d eps       ncg     rms          rms(c)
DAV:   1    -0.232300324471E+04   -0.24924E-03   -0.55203E-03  4248   0.462E-02    0.284E-02
RMM:   2    -0.232300328119E+04   -0.36473E-04   -0.33218E-04  4162   0.117E-02    0.324E-02
RMM:   3    -0.232300327415E+04    0.70374E-05   -0.42110E-05  2855   0.522E-03
  60 F= -.23444339E+04 E0= -.23444339E+04  d E =-.294243E-03  mag=     4.0000
       N       E                     dE             d eps       ncg     rms          rms(c)
DAV:   1    -0.232300394546E+04   -0.66427E-03   -0.67077E-02  4516   0.157E-01    0.790E-02
RMM:   2    -0.232300431497E+04   -0.36951E-03   -0.35432E-03  5828   0.373E-02    0.987E-02
RMM:   3    -0.232300427019E+04    0.44789E-04   -0.38675E-04  3300   0.117E-02    0.591E-02
RMM:   4    -0.232300426353E+04    0.66559E-05   -0.78137E-05  3016   0.511E-03
  61 F= -.23444350E+04 E0= -.23444350E+04  d E =-.103485E-02  mag=     4.0000
       N       E                     dE             d eps       ncg     rms          rms(c)
DAV:   1    -0.232300452398E+04   -0.25379E-03   -0.70963E-03  4260   0.532E-02    0.314E-02
RMM:   2    -0.232300457042E+04   -0.46442E-04   -0.40677E-04  4543   0.123E-02    0.385E-02
RMM:   3    -0.232300456363E+04    0.67940E-05   -0.52370E-05  2905   0.505E-03
  62 F= -.23444353E+04 E0= -.23444353E+04  d E =-.318707E-03  mag=     4.0000
       N       E                     dE             d eps       ncg     rms          rms(c)
DAV:   1    -0.232300523304E+04   -0.66262E-03   -0.15887E-01  4504   0.242E-01    0.111E-01
RMM:   2    -0.232300602675E+04   -0.79371E-03   -0.86083E-03  6356   0.578E-02    0.883E-02
RMM:   3    -0.232300611543E+04   -0.88686E-04   -0.84163E-04  3518   0.166E-02    0.110E-01
RMM:   4    -0.232300602633E+04    0.89102E-04   -0.13080E-04  3012   0.668E-03    0.353E-02
RMM:   5    -0.232300603233E+04   -0.59992E-05   -0.54874E-05  2985   0.455E-03
  63 F= -.23444368E+04 E0= -.23444368E+04  d E =-.154799E-02  mag=     4.0000
       N       E                     dE             d eps       ncg     rms          rms(c)
DAV:   1    -0.232300327772E+04    0.27486E-02   -0.22125E-01  4504   0.284E-01    0.126E-01
RMM:   2    -0.232300438790E+04   -0.11102E-02   -0.11562E-02  6395   0.672E-02    0.126E-01
RMM:   3    -0.232300439421E+04   -0.63092E-05   -0.11224E-03  3746   0.192E-02    0.109E-01
RMM:   4    -0.232300431192E+04    0.82291E-04   -0.17943E-04  3129   0.765E-03    0.492E-02
RMM:   5    -0.232300430856E+04    0.33556E-05   -0.91823E-05  3051   0.568E-03
  64 F= -.23444350E+04 E0= -.23444350E+04  d E =0.181299E-02  mag=     4.0000
       N       E                     dE             d eps       ncg     rms          rms(c)
DAV:   1    -0.232300476932E+04   -0.45741E-03   -0.34395E-01  4504   0.355E-01    0.157E-01
RMM:   2    -0.232300659831E+04   -0.18290E-02   -0.19074E-02  6439   0.857E-02    0.166E-01
RMM:   3    -0.232300658405E+04    0.14256E-04   -0.18705E-03  4295   0.245E-02    0.131E-01
RMM:   4    -0.232300649081E+04    0.93238E-04   -0.29057E-04  3280   0.895E-03    0.664E-02
RMM:   5    -0.232300646908E+04    0.21734E-04   -0.15675E-04  3248   0.746E-03    0.429E-02
RMM:   6    -0.232300645187E+04    0.17209E-04   -0.41924E-05  2906   0.469E-03    0.213E-02
RMM:   7    -0.232300644706E+04    0.48055E-05   -0.13066E-05  2731   0.291E-03
  65 F= -.23444373E+04 E0= -.23444373E+04  d E =-.224744E-02  mag=     4.0000
       N       E                     dE             d eps       ncg     rms          rms(c)
DAV:   1    -0.232300634013E+04    0.11174E-03   -0.98321E-04  4624   0.258E-02    0.106E-02
RMM:   2    -0.232300634573E+04   -0.56069E-05   -0.66739E-05  3468   0.657E-03
  66 F= -.23444372E+04 E0= -.23444372E+04  d E =0.103428E-03  mag=     4.0000
       N       E                     dE             d eps       ncg     rms          rms(c)
DAV:   1    -0.232300693256E+04   -0.59243E-03   -0.14967E-01  4504   0.235E-01    0.995E-02
RMM:   2    -0.232300772808E+04   -0.79552E-03   -0.85043E-03  6283   0.569E-02    0.838E-02
RMM:   3    -0.232300778617E+04   -0.58090E-04   -0.81715E-04  3445   0.163E-02    0.920E-02
RMM:   4    -0.232300773002E+04    0.56151E-04   -0.11515E-04  2997   0.644E-03    0.390E-02
RMM:   5    -0.232300773210E+04   -0.20736E-05   -0.61222E-05  2980   0.456E-03
  67 F= -.23444386E+04 E0= -.23444386E+04  d E =-.146444E-02  mag=     4.0000
       N       E                     dE             d eps       ncg     rms          rms(c)
DAV:   1    -0.232300811190E+04   -0.38187E-03   -0.20660E-02  4436   0.884E-02    0.393E-02
RMM:   2    -0.232300822737E+04   -0.11547E-03   -0.11961E-03  5332   0.210E-02    0.364E-02
RMM:   3    -0.232300823312E+04   -0.57512E-05   -0.14774E-04  2980   0.775E-03    0.315E-02
RMM:   4    -0.232300822682E+04    0.62936E-05   -0.15136E-05  2867   0.304E-03
  68 F= -.23444392E+04 E0= -.23444392E+04  d E =-.523936E-03  mag=     4.0000
       N       E                     dE             d eps       ncg     rms          rms(c)
DAV:   1    -0.232300174591E+04    0.64872E-02   -0.68454E-01  4504   0.502E-01    0.216E-01
RMM:   2    -0.232300533167E+04   -0.35858E-02   -0.38350E-02  6525   0.120E-01    0.186E-01
RMM:   3    -0.232300557237E+04   -0.24070E-03   -0.39287E-03  5018   0.355E-02    0.193E-01
RMM:   4    -0.232300532850E+04    0.24387E-03   -0.52683E-04  3472   0.110E-02    0.862E-02
RMM:   5    -0.232300533441E+04   -0.59130E-05   -0.29480E-04  3474   0.971E-03    0.669E-02
RMM:   6    -0.232300527877E+04    0.55644E-04   -0.87429E-05  3058   0.632E-03    0.251E-02
RMM:   7    -0.232300527308E+04    0.56845E-05   -0.23840E-05  2879   0.350E-03
  69 F= -.23444360E+04 E0= -.23444360E+04  d E =0.311930E-02  mag=     4.0000
       N       E                     dE             d eps       ncg     rms          rms(c)
DAV:   1    -0.232300554837E+04   -0.26960E-03   -0.74334E-03  4228   0.521E-02    0.229E-02
RMM:   2    -0.232300558522E+04   -0.36846E-04   -0.40281E-04  4395   0.124E-02    0.254E-02
RMM:   3    -0.232300558419E+04    0.10297E-05   -0.41671E-05  2693   0.467E-03
  70 F= -.23444364E+04 E0= -.23444364E+04  d E =-.330403E-03  mag=     4.0000
       N       E                     dE             d eps       ncg     rms          rms(c)
DAV:   1    -0.232300578921E+04   -0.20399E-03   -0.38385E-03  4208   0.380E-02    0.217E-02
RMM:   2    -0.232300581142E+04   -0.22214E-04   -0.22887E-04  3789   0.937E-03    0.202E-02
RMM:   3    -0.232300580891E+04    0.25116E-05   -0.30953E-05  2570   0.478E-03
  71 F= -.23444366E+04 E0= -.23444366E+04  d E =-.236167E-03  mag=     4.0000
       N       E                     dE             d eps       ncg     rms          rms(c)
DAV:   1    -0.232300584175E+04   -0.30331E-04   -0.94355E-05  3592   0.744E-03    0.115E-02
RMM:   2    -0.232300585073E+04   -0.89788E-05   -0.22328E-05  2576   0.338E-03
  72 F= -.23444366E+04 E0= -.23444366E+04  d E =-.440898E-04  mag=     4.0000
       N       E                     dE             d eps       ncg     rms          rms(c)
DAV:   1    -0.232300610258E+04   -0.26083E-03   -0.70278E-03  4256   0.500E-02    0.253E-02
RMM:   2    -0.232300613609E+04   -0.33507E-04   -0.34294E-04  4231   0.118E-02    0.275E-02
RMM:   3    -0.232300613563E+04    0.46413E-06   -0.41299E-05  2763   0.490E-03
  73 F= -.23444370E+04 E0= -.23444370E+04  d E =-.307885E-03  mag=     4.0000
       N       E                     dE             d eps       ncg     rms          rms(c)
DAV:   1    -0.232300645744E+04   -0.32134E-03   -0.11527E-02  4376   0.651E-02    0.330E-02
RMM:   2    -0.232300651512E+04   -0.57683E-04   -0.57044E-04  4773   0.152E-02    0.316E-02
RMM:   3    -0.232300651096E+04    0.41600E-05   -0.70386E-05  2936   0.623E-03
  74 F= -.23444374E+04 E0= -.23444374E+04  d E =-.405508E-03  mag=     4.0000
       N       E                     dE             d eps       ncg     rms          rms(c)
DAV:   1    -0.232300632266E+04    0.19246E-03   -0.28267E-03  4248   0.333E-02    0.191E-02
RMM:   2    -0.232300635990E+04   -0.37237E-04   -0.16997E-04  3709   0.814E-03    0.561E-02
RMM:   3    -0.232300633333E+04    0.26569E-04   -0.28924E-05  2547   0.417E-03    0.579E-03
RMM:   4    -0.232300633318E+04    0.14351E-06   -0.35046E-06  2004   0.133E-03
  75 F= -.23444372E+04 E0= -.23444372E+04  d E =0.199367E-03  mag=     4.0000
       N       E                     dE             d eps       ncg     rms          rms(c)
DAV:   1    -0.232300633764E+04   -0.43116E-05   -0.20461E-05  3344   0.538E-03    0.336E-03
RMM:   2    -0.232300633827E+04   -0.62959E-06   -0.33333E-06  2313   0.233E-03
  76 F= -.23444372E+04 E0= -.23444372E+04  d E =-.555350E-05  mag=     4.0000
       N       E                     dE             d eps       ncg     rms          rms(c)
DAV:   1    -0.232300659763E+04   -0.25999E-03   -0.65651E-03  4264   0.500E-02    0.205E-02
RMM:   2    -0.232300662604E+04   -0.28414E-04   -0.30728E-04  4021   0.118E-02    0.191E-02
RMM:   3    -0.232300662730E+04   -0.12547E-05   -0.33626E-05  2736   0.505E-03
  77 F= -.23444375E+04 E0= -.23444375E+04  d E =-.300719E-03  mag=     4.0000
       N       E                     dE             d eps       ncg     rms          rms(c)
DAV:   1    -0.232300661864E+04    0.73998E-05   -0.44893E-05  4392   0.777E-03    0.892E-03
RMM:   2    -0.232300662304E+04   -0.43966E-05   -0.13318E-05  2488   0.309E-03
  78 F= -.23444375E+04 E0= -.23444375E+04  d E =0.583246E-05  mag=     4.0000
       N       E                     dE             d eps       ncg     rms          rms(c)
DAV:   1    -0.232300666251E+04   -0.43864E-04   -0.18291E-04  3992   0.106E-02    0.672E-03
RMM:   2    -0.232300666505E+04   -0.25479E-05   -0.16659E-05  2436   0.300E-03
  79 F= -.23444375E+04 E0= -.23444375E+04  d E =-.453203E-04  mag=     4.0000
       N       E                     dE             d eps       ncg     rms          rms(c)
DAV:   1    -0.232300670143E+04   -0.38923E-04   -0.20124E-04  4144   0.106E-02    0.686E-03
RMM:   2    -0.232300670316E+04   -0.17323E-05   -0.15696E-05  2408   0.302E-03
  80 F= -.23444376E+04 E0= -.23444376E+04  d E =-.462167E-04  mag=     4.0000
       N       E                     dE             d eps       ncg     rms          rms(c)
DAV:   1    -0.232300680038E+04   -0.98952E-04   -0.81538E-04  4176   0.180E-02    0.104E-02
RMM:   2    -0.232300680551E+04   -0.51300E-05   -0.51985E-05  2911   0.473E-03
  81 F= -.23444377E+04 E0= -.23444377E+04  d E =-.104228E-03  mag=     4.0000
       N       E                     dE             d eps       ncg     rms          rms(c)
DAV:   1    -0.232300702503E+04   -0.22465E-03   -0.56111E-03  4232   0.450E-02    0.238E-02
RMM:   2    -0.232300705694E+04   -0.31909E-04   -0.34921E-04  4089   0.117E-02    0.185E-02
RMM:   3    -0.232300706127E+04   -0.43320E-05   -0.43049E-05  2763   0.542E-03
  82 F= -.23444379E+04 E0= -.23444379E+04  d E =-.276994E-03  mag=     4.0000
       N       E                     dE             d eps       ncg     rms          rms(c)
DAV:   1    -0.232300713431E+04   -0.77375E-04   -0.51736E-04  4032   0.146E-02    0.154E-02
RMM:   2    -0.232300714564E+04   -0.11326E-04   -0.52381E-05  2981   0.441E-03    0.330E-02
RMM:   3    -0.232300713647E+04    0.91674E-05   -0.11925E-05  2372   0.281E-03
  83 F= -.23444380E+04 E0= -.23444380E+04  d E =-.806940E-04  mag=     4.0000
       N       E                     dE             d eps       ncg     rms          rms(c)
DAV:   1    -0.232300698651E+04    0.15913E-03   -0.18490E-03  4216   0.269E-02    0.107E-02
RMM:   2    -0.232300699940E+04   -0.12887E-04   -0.11184E-04  3280   0.648E-03    0.184E-02
RMM:   3    -0.232300699695E+04    0.24509E-05   -0.13903E-05  2333   0.371E-03
  84 F= -.23444379E+04 E0= -.23444379E+04  d E =0.154127E-03  mag=     4.0000
       N       E                     dE             d eps       ncg     rms          rms(c)
DAV:   1    -0.232300706805E+04   -0.68657E-04   -0.44064E-04  4096   0.132E-02    0.502E-03
RMM:   2    -0.232300707060E+04   -0.25467E-05   -0.24522E-05  2474   0.316E-03
  85 F= -.23444379E+04 E0= -.23444379E+04  d E =-.776593E-04  mag=     4.0000
       N       E                     dE             d eps       ncg     rms          rms(c)
DAV:   1    -0.232300721402E+04   -0.14597E-03   -0.19199E-03  4284   0.291E-02    0.134E-02
RMM:   2    -0.232300722477E+04   -0.10747E-04   -0.11228E-04  3462   0.720E-03    0.148E-02
RMM:   3    -0.232300722452E+04    0.24641E-06   -0.12667E-05  2397   0.392E-03
  86 F= -.23444381E+04 E0= -.23444381E+04  d E =-.155963E-03  mag=     4.0000
       N       E                     dE             d eps       ncg     rms          rms(c)
DAV:   1    -0.232300732711E+04   -0.10234E-03   -0.10642E-03  4192   0.213E-02    0.113E-02
RMM:   2    -0.232300733302E+04   -0.59123E-05   -0.62236E-05  2940   0.546E-03
  87 F= -.23444382E+04 E0= -.23444382E+04  d E =-.119737E-03  mag=     4.0000
       N       E                     dE             d eps       ncg     rms          rms(c)
DAV:   1    -0.232300745795E+04   -0.13084E-03   -0.15099E-03  4192   0.235E-02    0.161E-02
RMM:   2    -0.232300746823E+04   -0.10285E-04   -0.87137E-05  3228   0.592E-03    0.231E-02
RMM:   3    -0.232300746441E+04    0.38182E-05   -0.11135E-05  2485   0.340E-03
  88 F= -.23444384E+04 E0= -.23444384E+04  d E =-.142319E-03  mag=     4.0000
       N       E                     dE             d eps       ncg     rms          rms(c)
DAV:   1    -0.232300758343E+04   -0.11520E-03   -0.11950E-03  4160   0.207E-02    0.152E-02
RMM:   2    -0.232300759614E+04   -0.12705E-04   -0.70713E-05  3097   0.534E-03    0.260E-02
RMM:   3    -0.232300758734E+04    0.87922E-05   -0.12546E-05  2474   0.335E-03
  89 F= -.23444385E+04 E0= -.23444385E+04  d E =-.128358E-03  mag=     4.0000
       N       E                     dE             d eps       ncg     rms          rms(c)
DAV:   1    -0.232300747976E+04    0.11638E-03   -0.93347E-04  4160   0.184E-02    0.800E-03
RMM:   2    -0.232300748553E+04   -0.57784E-05   -0.44266E-05  2748   0.433E-03
  90 F= -.23444384E+04 E0= -.23444384E+04  d E =0.109068E-03  mag=     4.0000
       N       E                     dE             d eps       ncg     rms          rms(c)
DAV:   1    -0.232300766959E+04   -0.18983E-03   -0.34241E-03  4168   0.357E-02    0.147E-02
RMM:   2    -0.232300768652E+04   -0.16934E-04   -0.16142E-04  3707   0.841E-03    0.207E-02
RMM:   3    -0.232300768467E+04    0.18535E-05   -0.19359E-05  2446   0.421E-03
  91 F= -.23444386E+04 E0= -.23444386E+04  d E =-.210718E-03  mag=     4.0000
       N       E                     dE             d eps       ncg     rms          rms(c)
DAV:   1    -0.232300774083E+04   -0.54308E-04   -0.27113E-04  4208   0.115E-02    0.801E-03
RMM:   2    -0.232300774282E+04   -0.19932E-05   -0.18243E-05  2565   0.315E-03
  92 F= -.23444386E+04 E0= -.23444386E+04  d E =-.604611E-04  mag=     4.0000
       N       E                     dE             d eps       ncg     rms          rms(c)
DAV:   1    -0.232300788856E+04   -0.14773E-03   -0.19389E-03  4200   0.263E-02    0.149E-02
RMM:   2    -0.232300789758E+04   -0.90155E-05   -0.96359E-05  3280   0.634E-03
  93 F= -.23444388E+04 E0= -.23444388E+04  d E =-.160768E-03  mag=     4.0000
       N       E                     dE             d eps       ncg     rms          rms(c)
DAV:   1    -0.232300816336E+04   -0.27480E-03   -0.74216E-03  4328   0.510E-02    0.307E-02
RMM:   2    -0.232300820877E+04   -0.45408E-04   -0.40492E-04  4307   0.132E-02    0.438E-02
RMM:   3    -0.232300819638E+04    0.12383E-04   -0.44522E-05  2923   0.517E-03    0.207E-02
RMM:   4    -0.232300819767E+04   -0.12872E-05   -0.12253E-05  2664   0.238E-03
  94 F= -.23444391E+04 E0= -.23444391E+04  d E =-.316284E-03  mag=     4.0000
       N       E                     dE             d eps       ncg     rms          rms(c)
DAV:   1    -0.232300808300E+04    0.11338E-03   -0.10051E-03  4168   0.197E-02    0.880E-03
RMM:   2    -0.232300808987E+04   -0.68674E-05   -0.48575E-05  2896   0.484E-03
  95 F= -.23444390E+04 E0= -.23444390E+04  d E =0.110176E-03  mag=     4.0000
       N       E                     dE             d eps       ncg     rms          rms(c)
DAV:   1    -0.232300812077E+04   -0.37767E-04   -0.12077E-04  3808   0.920E-03    0.482E-03
RMM:   2    -0.232300812292E+04   -0.21515E-05   -0.10515E-05  2446   0.310E-03
  96 F= -.23444391E+04 E0= -.23444391E+04  d E =-.356259E-04  mag=     4.0000
       N       E                     dE             d eps       ncg     rms          rms(c)
DAV:   1    -0.232300822092E+04   -0.10015E-03   -0.10270E-03  4200   0.190E-02    0.862E-03
RMM:   2    -0.232300822473E+04   -0.38070E-05   -0.44122E-05  2848   0.475E-03
  97 F= -.23444392E+04 E0= -.23444392E+04  d E =-.114789E-03  mag=     4.0000
       N       E                     dE             d eps       ncg     rms          rms(c)
DAV:   1    -0.232300832712E+04   -0.10620E-03   -0.72919E-04  4184   0.171E-02    0.134E-02
RMM:   2    -0.232300833718E+04   -0.10059E-04   -0.45583E-05  2901   0.485E-03    0.309E-02
RMM:   3    -0.232300832930E+04    0.78810E-05   -0.85094E-06  2372   0.309E-03
  98 F= -.23444393E+04 E0= -.23444393E+04  d E =-.100934E-03  mag=     4.0000
       N       E                     dE             d eps       ncg     rms          rms(c)
DAV:   1    -0.232300844616E+04   -0.10898E-03   -0.11115E-03  4136   0.191E-02    0.117E-02
RMM:   2    -0.232300845127E+04   -0.51078E-05   -0.50958E-05  2975   0.479E-03
  99 F= -.23444394E+04 E0= -.23444394E+04  d E =-.127622E-03  mag=     4.0000
       N       E                     dE             d eps       ncg     rms          rms(c)
DAV:   1    -0.232300856570E+04   -0.11954E-03   -0.11539E-03  4136   0.200E-02    0.147E-02
RMM:   2    -0.232300857258E+04   -0.68847E-05   -0.57551E-05  3135   0.512E-03
 100 F= -.23444395E+04 E0= -.23444395E+04  d E =-.128321E-03  mag=     4.0000
       N       E                     dE             d eps       ncg     rms          rms(c)
DAV:   1    -0.232300851035E+04    0.55349E-04   -0.36587E-04  4248   0.183E-02    0.110E-02
RMM:   2    -0.232300851927E+04   -0.89194E-05   -0.41441E-05  2884   0.534E-03
 101 F= -.23444395E+04 E0= -.23444395E+04  d E =0.487933E-04  mag=     4.0000
       N       E                     dE             d eps       ncg     rms          rms(c)
DAV:   1    -0.232300880112E+04   -0.29077E-03   -0.75669E-03  4360   0.511E-02    0.244E-02
RMM:   2    -0.232300882814E+04   -0.27021E-04   -0.30625E-04  4221   0.120E-02    0.188E-02
RMM:   3    -0.232300883190E+04   -0.37581E-05   -0.34197E-05  2831   0.515E-03
 102 F= -.23444398E+04 E0= -.23444398E+04  d E =-.321488E-03  mag=     4.0000
       N       E                     dE             d eps       ncg     rms          rms(c)
DAV:   1    -0.232300902178E+04   -0.19364E-03   -0.34883E-03  4184   0.346E-02    0.215E-02
RMM:   2    -0.232300903988E+04   -0.18097E-04   -0.16880E-04  3562   0.865E-03    0.242E-02
RMM:   3    -0.232300903637E+04    0.35045E-05   -0.23217E-05  2694   0.451E-03
 103 F= -.23444400E+04 E0= -.23444400E+04  d E =-.221320E-03  mag=     4.0000
       N       E                     dE             d eps       ncg     rms          rms(c)
DAV:   1    -0.232300918744E+04   -0.14757E-03   -0.19257E-03  4152   0.253E-02    0.215E-02
RMM:   2    -0.232300920626E+04   -0.18812E-04   -0.10810E-04  3311   0.642E-03    0.388E-02
RMM:   3    -0.232300919311E+04    0.13145E-04   -0.22300E-05  2615   0.371E-03    0.140E-02
RMM:   4    -0.232300919317E+04   -0.53609E-07   -0.59803E-06  1877   0.145E-03
 104 F= -.23444402E+04 E0= -.23444402E+04  d E =-.162916E-03  mag=     4.0000
       N       E                     dE             d eps       ncg     rms          rms(c)
DAV:   1    -0.232300891207E+04    0.28104E-03   -0.54517E-03  4200   0.397E-02    0.181E-02
RMM:   2    -0.232300892749E+04   -0.15423E-04   -0.18762E-04  3716   0.889E-03    0.112E-02
RMM:   3    -0.232300892871E+04   -0.12212E-05   -0.22582E-05  2495   0.422E-03
 105 F= -.23444399E+04 E0= -.23444399E+04  d E =0.275605E-03  mag=     4.0000
       N       E                     dE             d eps       ncg     rms          rms(c)
DAV:   1    -0.232300924807E+04   -0.32058E-03   -0.11325E-02  4312   0.620E-02    0.263E-02
RMM:   2    -0.232300929525E+04   -0.47178E-04   -0.49892E-04  4599   0.136E-02    0.278E-02
RMM:   3    -0.232300929432E+04    0.92425E-06   -0.58265E-05  2823   0.548E-03
 106 F= -.23444403E+04 E0= -.23444403E+04  d E =-.391479E-03  mag=     4.0000
       N       E                     dE             d eps       ncg     rms          rms(c)
DAV:   1    -0.232300951160E+04   -0.21635E-03   -0.48855E-03  4216   0.415E-02    0.252E-02
RMM:   2    -0.232300953707E+04   -0.25469E-04   -0.25167E-04  3842   0.999E-03    0.244E-02
RMM:   3    -0.232300953345E+04    0.36213E-05   -0.34196E-05  2752   0.508E-03
 107 F= -.23444406E+04 E0= -.23444406E+04  d E =-.256248E-03  mag=     4.0000
       N       E                     dE             d eps       ncg     rms          rms(c)
DAV:   1    -0.232300955863E+04   -0.21564E-04   -0.11115E-04  5144   0.123E-02    0.200E-02
RMM:   2    -0.232300958617E+04   -0.27538E-04   -0.57961E-05  2906   0.440E-03    0.577E-02
RMM:   3    -0.232300955681E+04    0.29359E-04   -0.19052E-05  2471   0.333E-03    0.798E-03
RMM:   4    -0.232300955621E+04    0.60358E-06   -0.25454E-06  1414   0.102E-03
 108 F= -.23444406E+04 E0= -.23444406E+04  d E =-.158465E-04  mag=     4.0000
       N       E                     dE             d eps       ncg     rms          rms(c)
DAV:   1    -0.232300948180E+04    0.75018E-04   -0.43923E-04  4184   0.136E-02    0.532E-03
RMM:   2    -0.232300948352E+04   -0.17227E-05   -0.18595E-05  2474   0.326E-03
 109 F= -.23444405E+04 E0= -.23444405E+04  d E =0.715429E-04  mag=     4.0000
       N       E                     dE             d eps       ncg     rms          rms(c)
DAV:   1    -0.232300976398E+04   -0.28218E-03   -0.92085E-03  4288   0.573E-02    0.233E-02
RMM:   2    -0.232300980452E+04   -0.40546E-04   -0.43076E-04  4429   0.133E-02    0.222E-02
RMM:   3    -0.232300980610E+04   -0.15801E-05   -0.46098E-05  2745   0.526E-03
 110 F= -.23444408E+04 E0= -.23444408E+04  d E =-.344262E-03  mag=     4.0000
       N       E                     dE             d eps       ncg     rms          rms(c)
DAV:   1    -0.232300992161E+04   -0.11709E-03   -0.12914E-03  4168   0.231E-02    0.161E-02
RMM:   2    -0.232300993029E+04   -0.86793E-05   -0.84292E-05  3162   0.596E-03
 111 F= -.23444410E+04 E0= -.23444410E+04  d E =-.130898E-03  mag=     4.0000
       N       E                     dE             d eps       ncg     rms          rms(c)
DAV:   1    -0.232301015612E+04   -0.23450E-03   -0.58573E-03  4256   0.460E-02    0.262E-02
RMM:   2    -0.232301018508E+04   -0.28964E-04   -0.31669E-04  4140   0.111E-02    0.214E-02
RMM:   3    -0.232301018838E+04   -0.33038E-05   -0.41166E-05  2768   0.545E-03
 112 F= -.23444412E+04 E0= -.23444412E+04  d E =-.274583E-03  mag=     4.0000
       N       E                     dE             d eps       ncg     rms          rms(c)
DAV:   1    -0.232301027866E+04   -0.93582E-04   -0.92338E-04  4236   0.206E-02    0.193E-02
RMM:   2    -0.232301029638E+04   -0.17718E-04   -0.80299E-05  3110   0.602E-03    0.409E-02
RMM:   3    -0.232301028166E+04    0.14724E-04   -0.18786E-05  2595   0.374E-03    0.114E-02
RMM:   4    -0.232301028136E+04    0.29504E-06   -0.41137E-06  1940   0.131E-03
 113 F= -.23444413E+04 E0= -.23444413E+04  d E =-.101518E-03  mag=     4.0000
       N       E                     dE             d eps       ncg     rms          rms(c)
DAV:   1    -0.232301030584E+04   -0.24188E-04   -0.86265E-05  4472   0.840E-03    0.443E-03
RMM:   2    -0.232301030688E+04   -0.10325E-05   -0.72965E-06  2428   0.226E-03
 114 F= -.23444414E+04 E0= -.23444414E+04  d E =-.304671E-04  mag=     4.0000
       N       E                     dE             d eps       ncg     rms          rms(c)
DAV:   1    -0.232301042240E+04   -0.11655E-03   -0.12219E-03  4164   0.216E-02    0.107E-02
RMM:   2    -0.232301042880E+04   -0.64039E-05   -0.65108E-05  2968   0.529E-03
 115 F= -.23444415E+04 E0= -.23444415E+04  d E =-.124961E-03  mag=     4.0000
       N       E                     dE             d eps       ncg     rms          rms(c)
DAV:   1    -0.232301041718E+04    0.52129E-05   -0.53737E-05  4304   0.864E-03    0.899E-03
RMM:   2    -0.232301042319E+04   -0.60097E-05   -0.15391E-05  2440   0.288E-03
 116 F= -.23444415E+04 E0= -.23444415E+04  d E =0.692740E-05  mag=     4.0000
       N       E                     dE             d eps       ncg     rms          rms(c)
DAV:   1    -0.232301059478E+04   -0.17760E-03   -0.33106E-03  4208   0.354E-02    0.168E-02
RMM:   2    -0.232301060881E+04   -0.14033E-04   -0.16061E-04  3504   0.872E-03    0.118E-02
RMM:   3    -0.232301061050E+04   -0.16818E-05   -0.19888E-05  2535   0.456E-03
 117 F= -.23444417E+04 E0= -.23444417E+04  d E =-.198026E-03  mag=     4.0000
       N       E                     dE             d eps       ncg     rms          rms(c)
DAV:   1    -0.232301068232E+04   -0.73503E-04   -0.51050E-04  4176   0.152E-02    0.112E-02
RMM:   2    -0.232301068903E+04   -0.67174E-05   -0.36303E-05  2789   0.400E-03
 118 F= -.23444418E+04 E0= -.23444418E+04  d E =-.837110E-04  mag=     4.0000
       N       E                     dE             d eps       ncg     rms          rms(c)
DAV:   1    -0.232301078694E+04   -0.10462E-03   -0.10909E-03  4136   0.206E-02    0.128E-02
RMM:   2    -0.232301079268E+04   -0.57416E-05   -0.64676E-05  3017   0.532E-03
 119 F= -.23444419E+04 E0= -.23444419E+04  d E =-.110981E-03  mag=     4.0000
       N       E                     dE             d eps       ncg     rms          rms(c)
DAV:   1    -0.232301096686E+04   -0.17992E-03   -0.34615E-03  4224   0.353E-02    0.217E-02
RMM:   2    -0.232301099063E+04   -0.23778E-04   -0.20310E-04  3665   0.915E-03    0.298E-02
RMM:   3    -0.232301098569E+04    0.49420E-05   -0.27338E-05  2653   0.476E-03
 120 F= -.23444421E+04 E0= -.23444421E+04  d E =-.210181E-03  mag=     4.0000
       N       E                     dE             d eps       ncg     rms          rms(c)
DAV:   1    -0.232301100021E+04   -0.95788E-05   -0.12053E-04  4656   0.123E-02    0.929E-03
RMM:   2    -0.232301100462E+04   -0.44097E-05   -0.22032E-05  2607   0.375E-03
 121 F= -.23444421E+04 E0= -.23444421E+04  d E =-.201278E-04  mag=     4.0000
       N       E                     dE             d eps       ncg     rms          rms(c)
DAV:   1    -0.232301107569E+04   -0.75479E-04   -0.50832E-04  4208   0.160E-02    0.836E-03
RMM:   2    -0.232301107858E+04   -0.28838E-05   -0.31880E-05  2620   0.406E-03
 122 F= -.23444422E+04 E0= -.23444422E+04  d E =-.756094E-04  mag=     4.0000
       N       E                     dE             d eps       ncg     rms          rms(c)
DAV:   1    -0.232301111499E+04   -0.39296E-04   -0.15067E-04  3840   0.915E-03    0.992E-03
RMM:   2    -0.232301112080E+04   -0.58087E-05   -0.20403E-05  2468   0.346E-03
 123 F= -.23444422E+04 E0= -.23444422E+04  d E =-.474329E-04  mag=     4.0000
       N       E                     dE             d eps       ncg     rms          rms(c)
DAV:   1    -0.232301129357E+04   -0.17858E-03   -0.34394E-03  4224   0.344E-02    0.181E-02
RMM:   2    -0.232301130780E+04   -0.14232E-04   -0.16240E-04  3610   0.826E-03    0.140E-02
RMM:   3    -0.232301131059E+04   -0.27916E-05   -0.20974E-05  2574   0.426E-03
 124 F= -.23444424E+04 E0= -.23444424E+04  d E =-.202371E-03  mag=     4.0000
       N       E                     dE             d eps       ncg     rms          rms(c)
DAV:   1    -0.232301132884E+04   -0.21035E-04   -0.44606E-05  3768   0.674E-03    0.808E-03
RMM:   2    -0.232301133235E+04   -0.35158E-05   -0.10275E-05  2446   0.287E-03
 125 F= -.23444425E+04 E0= -.23444425E+04  d E =-.222127E-04  mag=     4.0000
       N       E                     dE             d eps       ncg     rms          rms(c)
DAV:   1    -0.232301138068E+04   -0.51845E-04   -0.29719E-04  3904   0.114E-02    0.709E-03
RMM:   2    -0.232301138292E+04   -0.22372E-05   -0.20486E-05  2447   0.322E-03
 126 F= -.23444425E+04 E0= -.23444425E+04  d E =-.570522E-04  mag=     4.0000
       N       E                     dE             d eps       ncg     rms          rms(c)
DAV:   1    -0.232301147309E+04   -0.92405E-04   -0.84660E-04  4136   0.179E-02    0.109E-02
RMM:   2    -0.232301147865E+04   -0.55664E-05   -0.52815E-05  2852   0.483E-03
 127 F= -.23444426E+04 E0= -.23444426E+04  d E =-.101865E-03  mag=     4.0000
       N       E                     dE             d eps       ncg     rms          rms(c)
DAV:   1    -0.232301160069E+04   -0.12761E-03   -0.18128E-03  4168   0.263E-02    0.165E-02
RMM:   2    -0.232301161288E+04   -0.12186E-04   -0.11553E-04  3381   0.682E-03    0.189E-02
RMM:   3    -0.232301161164E+04    0.12428E-05   -0.15353E-05  2443   0.395E-03
 128 F= -.23444428E+04 E0= -.23444428E+04  d E =-.147671E-03  mag=     4.0000
       N       E                     dE             d eps       ncg     rms          rms(c)
DAV:   1    -0.232301167702E+04   -0.64139E-04   -0.39262E-04  4036   0.128E-02    0.104E-02
RMM:   2    -0.232301168216E+04   -0.51377E-05   -0.31510E-05  2695   0.369E-03
 129 F= -.23444428E+04 E0= -.23444428E+04  d E =-.743090E-04  mag=     4.0000
       N       E                     dE             d eps       ncg     rms          rms(c)
DAV:   1    -0.232301167112E+04    0.59012E-05   -0.35732E-05  4104   0.782E-03    0.547E-03
RMM:   2    -0.232301167227E+04   -0.11557E-05   -0.52603E-06  2375   0.271E-03
 130 F= -.23444428E+04 E0= -.23444428E+04  d E =0.124379E-04  mag=     4.0000
       N       E                     dE             d eps       ncg     rms          rms(c)
DAV:   1    -0.232301175455E+04   -0.83428E-04   -0.70316E-04  4142   0.165E-02    0.887E-03
RMM:   2    -0.232301175846E+04   -0.39141E-05   -0.39204E-05  2623   0.426E-03
 131 F= -.23444429E+04 E0= -.23444429E+04  d E =-.926091E-04  mag=     4.0000
       N       E                     dE             d eps       ncg     rms          rms(c)
DAV:   1    -0.232301183783E+04   -0.83279E-04   -0.68642E-04  4164   0.164E-02    0.124E-02
RMM:   2    -0.232301184493E+04   -0.70992E-05   -0.43774E-05  2818   0.432E-03
 132 F= -.23444430E+04 E0= -.23444430E+04  d E =-.948985E-04  mag=     4.0000
       N       E                     dE             d eps       ncg     rms          rms(c)
DAV:   1    -0.232301200779E+04   -0.16996E-03   -0.27437E-03  4176   0.305E-02    0.189E-02
RMM:   2    -0.232301201964E+04   -0.11855E-04   -0.12977E-04  3432   0.785E-03    0.179E-02
RMM:   3    -0.232301202079E+04   -0.11460E-05   -0.18303E-05  2588   0.401E-03
 133 F= -.23444432E+04 E0= -.23444432E+04  d E =-.182620E-03  mag=     4.0000
       N       E                     dE             d eps       ncg     rms          rms(c)
DAV:   1    -0.232301212766E+04   -0.10802E-03   -0.11222E-03  4136   0.202E-02    0.123E-02
RMM:   2    -0.232301213385E+04   -0.61936E-05   -0.59895E-05  3063   0.494E-03
 134 F= -.23444433E+04 E0= -.23444433E+04  d E =-.118844E-03  mag=     4.0000
       N       E                     dE             d eps       ncg     rms          rms(c)
DAV:   1    -0.232301244971E+04   -0.32205E-03   -0.12510E-02  4336   0.632E-02    0.338E-02
RMM:   2    -0.232301249962E+04   -0.49913E-04   -0.56929E-04  4553   0.146E-02    0.240E-02
RMM:   3    -0.232301250886E+04   -0.92435E-05   -0.73781E-05  2994   0.633E-03
 135 F= -.23444437E+04 E0= -.23444437E+04  d E =-.402456E-03  mag=     4.0000
       N       E                     dE             d eps       ncg     rms          rms(c)
DAV:   1    -0.232301204502E+04    0.45460E-03   -0.14867E-02  4336   0.688E-02    0.287E-02
RMM:   2    -0.232301210511E+04   -0.60099E-04   -0.59284E-04  4685   0.157E-02    0.376E-02
RMM:   3    -0.232301210103E+04    0.40883E-05   -0.72494E-05  2900   0.608E-03
 136 F= -.23444433E+04 E0= -.23444433E+04  d E =0.432654E-03  mag=     4.0000
       N       E                     dE             d eps       ncg     rms          rms(c)
DAV:   1    -0.232301212313E+04   -0.18019E-04   -0.85249E-05  3696   0.849E-03    0.885E-03
RMM:   2    -0.232301212619E+04   -0.30590E-05   -0.15677E-05  2482   0.324E-03
 137 F= -.23444433E+04 E0= -.23444433E+04  d E =-.252623E-04  mag=     4.0000
       N       E                     dE             d eps       ncg     rms          rms(c)
DAV:   1    -0.232301211222E+04    0.10912E-04   -0.59219E-05  4328   0.897E-03    0.528E-03
RMM:   2    -0.232301211396E+04   -0.17421E-05   -0.78515E-06  2379   0.259E-03
 138 F= -.23444433E+04 E0= -.23444433E+04  d E =0.179925E-04  mag=     4.0000
       N       E                     dE             d eps       ncg     rms          rms(c)
DAV:   1    -0.232301215717E+04   -0.44947E-04   -0.24809E-04  4164   0.131E-02    0.468E-03
RMM:   2    -0.232301215984E+04   -0.26757E-05   -0.28401E-05  2459   0.377E-03
 139 F= -.23444433E+04 E0= -.23444433E+04  d E =-.468787E-04  mag=     4.0000
       N       E                     dE             d eps       ncg     rms          rms(c)
DAV:   1    -0.232301219746E+04   -0.40291E-04   -0.15273E-04  4024   0.936E-03    0.548E-03
RMM:   2    -0.232301219933E+04   -0.18694E-05   -0.11913E-05  2391   0.288E-03
 140 F= -.23444434E+04 E0= -.23444434E+04  d E =-.418227E-04  mag=     4.0000
       N       E                     dE             d eps       ncg     rms          rms(c)
DAV:   1    -0.232301218742E+04    0.10042E-04   -0.15061E-04  4264   0.140E-02    0.523E-03
RMM:   2    -0.232301218864E+04   -0.12181E-05   -0.11451E-05  2421   0.357E-03
 141 F= -.23444434E+04 E0= -.23444434E+04  d E =0.159269E-04  mag=     4.0000
       N       E                     dE             d eps       ncg     rms          rms(c)
DAV:   1    -0.232301237197E+04   -0.18455E-03   -0.38829E-03  4224   0.369E-02    0.170E-02
RMM:   2    -0.232301238758E+04   -0.15611E-04   -0.16194E-04  3516   0.884E-03    0.190E-02
RMM:   3    -0.232301238698E+04    0.59955E-06   -0.19691E-05  2486   0.438E-03
 142 F= -.23444436E+04 E0= -.23444436E+04  d E =-.218187E-03  mag=     4.0000
       N       E                     dE             d eps       ncg     rms          rms(c)
DAV:   1    -0.232301246614E+04   -0.78559E-04   -0.57279E-04  4104   0.143E-02    0.117E-02
RMM:   2    -0.232301247127E+04   -0.51306E-05   -0.34304E-05  2767   0.366E-03
 143 F= -.23444437E+04 E0= -.23444437E+04  d E =-.877795E-04  mag=     4.0000
       N       E                     dE             d eps       ncg     rms          rms(c)
DAV:   1    -0.232301242642E+04    0.39718E-04   -0.29274E-04  4444   0.181E-02    0.877E-03
RMM:   2    -0.232301243069E+04   -0.42760E-05   -0.26372E-05  2733   0.492E-03
 144 F= -.23444436E+04 E0= -.23444436E+04  d E =0.363641E-04  mag=     4.0000
       N       E                     dE             d eps       ncg     rms          rms(c)
DAV:   1    -0.232301253869E+04   -0.11227E-03   -0.12449E-03  4168   0.234E-02    0.105E-02
RMM:   2    -0.232301254529E+04   -0.65989E-05   -0.70134E-05  3056   0.602E-03
 145 F= -.23444438E+04 E0= -.23444438E+04  d E =-.120560E-03  mag=     4.0000
       N       E                     dE             d eps       ncg     rms          rms(c)
DAV:   1    -0.232301270271E+04   -0.16402E-03   -0.26912E-03  4192   0.316E-02    0.188E-02
RMM:   2    -0.232301271957E+04   -0.16858E-04   -0.14763E-04  3528   0.785E-03    0.256E-02
RMM:   3    -0.232301271564E+04    0.39294E-05   -0.18543E-05  2571   0.427E-03
 146 F= -.23444439E+04 E0= -.23444439E+04  d E =-.177719E-03  mag=     4.0000
       N       E                     dE             d eps       ncg     rms          rms(c)
DAV:   1    -0.232301279741E+04   -0.77835E-04   -0.87428E-04  4200   0.202E-02    0.131E-02
RMM:   2    -0.232301280405E+04   -0.66405E-05   -0.57512E-05  3000   0.528E-03
 147 F= -.23444440E+04 E0= -.23444440E+04  d E =-.103967E-03  mag=     4.0000
       N       E                     dE             d eps       ncg     rms          rms(c)
DAV:   1    -0.232301288792E+04   -0.90513E-04   -0.69497E-04  4184   0.181E-02    0.128E-02
RMM:   2    -0.232301289362E+04   -0.56957E-05   -0.47620E-05  2890   0.485E-03
 148 F= -.23444441E+04 E0= -.23444441E+04  d E =-.889996E-04  mag=     4.0000
       N       E                     dE             d eps       ncg     rms          rms(c)
DAV:   1    -0.232301304156E+04   -0.15364E-03   -0.24684E-03  4184   0.294E-02    0.194E-02
RMM:   2    -0.232301305615E+04   -0.14591E-04   -0.12864E-04  3452   0.766E-03    0.264E-02
RMM:   3    -0.232301305271E+04    0.34473E-05   -0.18598E-05  2601   0.396E-03
 149 F= -.23444443E+04 E0= -.23444443E+04  d E =-.170501E-03  mag=     4.0000
       N       E                     dE             d eps       ncg     rms          rms(c)
DAV:   1    -0.232301307059E+04   -0.14434E-04   -0.11892E-04  4560   0.114E-02    0.861E-03
RMM:   2    -0.232301307383E+04   -0.32393E-05   -0.16278E-05  2639   0.337E-03
 150 F= -.23444443E+04 E0= -.23444443E+04  d E =-.273337E-04  mag=     4.0000
       N       E                     dE             d eps       ncg     rms          rms(c)
DAV:   1    -0.232301312002E+04   -0.49428E-04   -0.22831E-04  4232   0.122E-02    0.691E-03
RMM:   2    -0.232301312247E+04   -0.24509E-05   -0.18033E-05  2495   0.325E-03
 151 F= -.23444444E+04 E0= -.23444444E+04  d E =-.478052E-04  mag=     4.0000
       N       E                     dE             d eps       ncg     rms          rms(c)
DAV:   1    -0.232301314007E+04   -0.20051E-04   -0.40881E-05  3272   0.540E-03    0.560E-03
RMM:   2    -0.232301314136E+04   -0.12887E-05   -0.58567E-06  2328   0.260E-03
 152 F= -.23444444E+04 E0= -.23444444E+04  d E =-.208180E-04  mag=     4.0000
       N       E                     dE             d eps       ncg     rms          rms(c)
DAV:   1    -0.232301316424E+04   -0.24169E-04   -0.62218E-05  3416   0.548E-03    0.453E-03
RMM:   2    -0.232301316484E+04   -0.60543E-06   -0.50570E-06  2178   0.202E-03
 153 F= -.23444444E+04 E0= -.23444444E+04  d E =-.251890E-04  mag=     4.0000
       N       E                     dE             d eps       ncg     rms          rms(c)
DAV:   1    -0.232301329116E+04   -0.12692E-03   -0.22359E-03  4192   0.288E-02    0.142E-02
RMM:   2    -0.232301330354E+04   -0.12384E-04   -0.13855E-04  3394   0.737E-03    0.953E-03
RMM:   3    -0.232301330479E+04   -0.12482E-05   -0.16505E-05  2403   0.405E-03
 154 F= -.23444446E+04 E0= -.23444446E+04  d E =-.157354E-03  mag=     4.0000
       N       E                     dE             d eps       ncg     rms          rms(c)
DAV:   1    -0.232301335708E+04   -0.53541E-04   -0.28653E-04  4096   0.118E-02    0.851E-03
RMM:   2    -0.232301336147E+04   -0.43921E-05   -0.22811E-05  2602   0.313E-03
 155 F= -.23444446E+04 E0= -.23444446E+04  d E =-.606925E-04  mag=     4.0000
       N       E                     dE             d eps       ncg     rms          rms(c)
DAV:   1    -0.232301343195E+04   -0.74870E-04   -0.57406E-04  4056   0.151E-02    0.994E-03
RMM:   2    -0.232301343538E+04   -0.34286E-05   -0.33220E-05  2743   0.398E-03
 156 F= -.23444447E+04 E0= -.23444447E+04  d E =-.788627E-04  mag=     4.0000
       N       E                     dE             d eps       ncg     rms          rms(c)
DAV:   1    -0.232301361984E+04   -0.18789E-03   -0.41569E-03  4248   0.388E-02    0.218E-02
RMM:   2    -0.232301364096E+04   -0.21124E-04   -0.20681E-04  3708   0.982E-03    0.268E-02
RMM:   3    -0.232301363844E+04    0.25249E-05   -0.24994E-05  2690   0.448E-03
 157 F= -.23444449E+04 E0= -.23444449E+04  d E =-.217190E-03  mag=     4.0000
       N       E                     dE             d eps       ncg     rms          rms(c)
DAV:   1    -0.232301368071E+04   -0.39747E-04   -0.18805E-04  4304   0.106E-02    0.104E-02
RMM:   2    -0.232301368576E+04   -0.50524E-05   -0.23578E-05  2735   0.325E-03
 158 F= -.23444450E+04 E0= -.23444450E+04  d E =-.517631E-04  mag=     4.0000
       N       E                     dE             d eps       ncg     rms          rms(c)
DAV:   1    -0.232301374834E+04   -0.67635E-04   -0.47738E-04  4076   0.145E-02    0.967E-03
RMM:   2    -0.232301375207E+04   -0.37273E-05   -0.30862E-05  2656   0.378E-03
 159 F= -.23444451E+04 E0= -.23444451E+04  d E =-.700549E-04  mag=     4.0000
       N       E                     dE             d eps       ncg     rms          rms(c)
DAV:   1    -0.232301382792E+04   -0.79579E-04   -0.81546E-04  4216   0.201E-02    0.124E-02
RMM:   2    -0.232301383431E+04   -0.63838E-05   -0.62123E-05  3056   0.569E-03
 160 F= -.23444452E+04 E0= -.23444452E+04  d E =-.890876E-04  mag=     4.0000
       N       E                     dE             d eps       ncg     rms          rms(c)
DAV:   1    -0.232301396083E+04   -0.13290E-03   -0.18619E-03  4152   0.273E-02    0.174E-02
RMM:   2    -0.232301397545E+04   -0.14630E-04   -0.12524E-04  3421   0.715E-03    0.243E-02
RMM:   3    -0.232301397179E+04    0.36642E-05   -0.14777E-05  2481   0.391E-03
 161 F= -.23444453E+04 E0= -.23444453E+04  d E =-.147942E-03  mag=     4.0000
       N       E                     dE             d eps       ncg     rms          rms(c)
DAV:   1    -0.232301399897E+04   -0.23516E-04   -0.77406E-05  3896   0.628E-03    0.718E-03
RMM:   2    -0.232301400091E+04   -0.19347E-05   -0.99056E-06  2423   0.256E-03
 162 F= -.23444453E+04 E0= -.23444453E+04  d E =-.322547E-04  mag=     4.0000
       N       E                     dE             d eps       ncg     rms          rms(c)
DAV:   1    -0.232301403348E+04   -0.34511E-04   -0.13493E-04  3616   0.805E-03    0.569E-03
RMM:   2    -0.232301403453E+04   -0.10488E-05   -0.96961E-06  2361   0.261E-03
 163 F= -.23444454E+04 E0= -.23444454E+04  d E =-.371306E-04  mag=     4.0000
       N       E                     dE             d eps       ncg     rms          rms(c)
DAV:   1    -0.232301417529E+04   -0.14180E-03   -0.26961E-03  4240   0.316E-02    0.167E-02
RMM:   2    -0.232301419015E+04   -0.14862E-04   -0.14945E-04  3408   0.801E-03    0.194E-02
RMM:   3    -0.232301418910E+04    0.10462E-05   -0.18761E-05  2498   0.418E-03
 164 F= -.23444455E+04 E0= -.23444455E+04  d E =-.170645E-03  mag=     4.0000
       N       E                     dE             d eps       ncg     rms          rms(c)
DAV:   1    -0.232301423985E+04   -0.49702E-04   -0.25863E-04  4176   0.127E-02    0.102E-02
RMM:   2    -0.232301424542E+04   -0.55664E-05   -0.27129E-05  2700   0.354E-03
 165 F= -.23444456E+04 E0= -.23444456E+04  d E =-.578984E-04  mag=     4.0000
       N       E                     dE             d eps       ncg     rms          rms(c)
DAV:   1    -0.232301430049E+04   -0.60642E-04   -0.40692E-04  4072   0.140E-02    0.939E-03
RMM:   2    -0.232301430406E+04   -0.35705E-05   -0.30279E-05  2647   0.375E-03
 166 F= -.23444457E+04 E0= -.23444457E+04  d E =-.643196E-04  mag=     4.0000
       N       E                     dE             d eps       ncg     rms          rms(c)
DAV:   1    -0.232301437869E+04   -0.78198E-04   -0.73600E-04  4136   0.171E-02    0.118E-02
RMM:   2    -0.232301438437E+04   -0.56817E-05   -0.51774E-05  2888   0.474E-03
 167 F= -.23444458E+04 E0= -.23444458E+04  d E =-.898952E-04  mag=     4.0000
       N       E                     dE             d eps       ncg     rms          rms(c)
DAV:   1    -0.232301450617E+04   -0.12748E-03   -0.20242E-03  4184   0.283E-02    0.174E-02
RMM:   2    -0.232301451980E+04   -0.13635E-04   -0.13085E-04  3432   0.725E-03    0.195E-02
RMM:   3    -0.232301451868E+04    0.11228E-05   -0.16831E-05  2498   0.417E-03
 168 F= -.23444459E+04 E0= -.23444459E+04  d E =-.148101E-03  mag=     4.0000
       N       E                     dE             d eps       ncg     rms          rms(c)
DAV:   1    -0.232301457614E+04   -0.56336E-04   -0.33729E-04  4160   0.125E-02    0.100E-02
RMM:   2    -0.232301458080E+04   -0.46582E-05   -0.29034E-05  2677   0.361E-03
 169 F= -.23444460E+04 E0= -.23444460E+04  d E =-.659635E-04  mag=     4.0000
       N       E                     dE             d eps       ncg     rms          rms(c)
DAV:   1    -0.232301461821E+04   -0.42070E-04   -0.16585E-04  3824   0.924E-03    0.790E-03
RMM:   2    -0.232301462030E+04   -0.20959E-05   -0.13595E-05  2480   0.316E-03
 170 F= -.23444460E+04 E0= -.23444460E+04  d E =-.403649E-04  mag=     4.0000
       N       E                     dE             d eps       ncg     rms          rms(c)
DAV:   1    -0.232301471864E+04   -0.10043E-03   -0.11275E-03  4152   0.206E-02    0.126E-02
RMM:   2    -0.232301472493E+04   -0.62923E-05   -0.62481E-05  3014   0.545E-03
 171 F= -.23444461E+04 E0= -.23444461E+04  d E =-.108536E-03  mag=     4.0000
       N       E                     dE             d eps       ncg     rms          rms(c)
DAV:   1    -0.232301481182E+04   -0.93182E-04   -0.91614E-04  4136   0.193E-02    0.157E-02
RMM:   2    -0.232301482279E+04   -0.10968E-04   -0.60959E-05  3018   0.512E-03    0.307E-02
RMM:   3    -0.232301481558E+04    0.72115E-05   -0.10262E-05  2398   0.315E-03
 172 F= -.23444462E+04 E0= -.23444462E+04  d E =-.102120E-03  mag=     4.0000
       N       E                     dE             d eps       ncg     rms          rms(c)
DAV:   1    -0.232301486519E+04   -0.42398E-04   -0.23443E-04  3832   0.961E-03    0.661E-03
RMM:   2    -0.232301486710E+04   -0.19146E-05   -0.16081E-05  2500   0.277E-03
 173 F= -.23444463E+04 E0= -.23444463E+04  d E =-.533788E-04  mag=     4.0000
       N       E                     dE             d eps       ncg     rms          rms(c)
DAV:   1    -0.232301485429E+04    0.10895E-04   -0.24351E-05  3296   0.539E-03    0.354E-03
RMM:   2    -0.232301485487E+04   -0.57880E-06   -0.35198E-06  2287   0.252E-03
 174 F= -.23444463E+04 E0= -.23444463E+04  d E =0.127397E-04  mag=     4.0000
       N       E                     dE             d eps       ncg     rms          rms(c)
DAV:   1    -0.232301492465E+04   -0.70363E-04   -0.56962E-04  4116   0.147E-02    0.741E-03
RMM:   2    -0.232301492764E+04   -0.29890E-05   -0.30969E-05  2548   0.381E-03
 175 F= -.23444463E+04 E0= -.23444463E+04  d E =-.792225E-04  mag=     4.0000
       N       E                     dE             d eps       ncg     rms          rms(c)
DAV:   1    -0.232301495128E+04   -0.26630E-04   -0.82080E-05  3872   0.757E-03    0.775E-03
RMM:   2    -0.232301495446E+04   -0.31733E-05   -0.10084E-05  2349   0.281E-03
 176 F= -.23444464E+04 E0= -.23444464E+04  d E =-.299480E-04  mag=     4.0000
       N       E                     dE             d eps       ncg     rms          rms(c)
DAV:   1    -0.232301511332E+04   -0.16204E-03   -0.30183E-03  4176   0.325E-02    0.169E-02
RMM:   2    -0.232301512550E+04   -0.12179E-04   -0.14141E-04  3427   0.807E-03    0.122E-02
RMM:   3    -0.232301512789E+04   -0.23927E-05   -0.19601E-05  2508   0.423E-03
 177 F= -.23444465E+04 E0= -.23444465E+04  d E =-.182589E-03  mag=     4.0000
       N       E                     dE             d eps       ncg     rms          rms(c)
DAV:   1    -0.232301517717E+04   -0.51673E-04   -0.26687E-04  3868   0.107E-02    0.954E-03
RMM:   2    -0.232301518170E+04   -0.45303E-05   -0.21107E-05  2641   0.320E-03
 178 F= -.23444466E+04 E0= -.23444466E+04  d E =-.572964E-04  mag=     4.0000
       N       E                     dE             d eps       ncg     rms          rms(c)
DAV:   1    -0.232301514985E+04    0.27327E-04   -0.11721E-04  4192   0.103E-02    0.599E-03
RMM:   2    -0.232301515197E+04   -0.21272E-05   -0.84411E-06  2371   0.280E-03
 179 F= -.23444466E+04 E0= -.23444466E+04  d E =0.315778E-04  mag=     4.0000
       N       E                     dE             d eps       ncg     rms          rms(c)
DAV:   1    -0.232301517609E+04   -0.26248E-04   -0.87055E-05  3544   0.746E-03    0.393E-03
RMM:   2    -0.232301517699E+04   -0.89427E-06   -0.74939E-06  2354   0.273E-03
 180 F= -.23444466E+04 E0= -.23444466E+04  d E =-.295011E-04  mag=     4.0000
       N       E                     dE             d eps       ncg     rms          rms(c)
DAV:   1    -0.232301530150E+04   -0.12541E-03   -0.20964E-03  4192   0.277E-02    0.133E-02
RMM:   2    -0.232301531134E+04   -0.98388E-05   -0.11255E-04  3359   0.691E-03    0.848E-03
RMM:   3    -0.232301531232E+04   -0.97351E-06   -0.13041E-05  2402   0.391E-03
 181 F= -.23444468E+04 E0= -.23444468E+04  d E =-.148981E-03  mag=     4.0000
       N       E                     dE             d eps       ncg     rms          rms(c)
DAV:   1    -0.232301537275E+04   -0.61409E-04   -0.36244E-04  4100   0.128E-02    0.798E-03
RMM:   2    -0.232301537617E+04   -0.34139E-05   -0.24427E-05  2587   0.339E-03
 182 F= -.23444468E+04 E0= -.23444468E+04  d E =-.659207E-04  mag=     4.0000
       N       E                     dE             d eps       ncg     rms          rms(c)
DAV:   1    -0.232301547243E+04   -0.99680E-04   -0.12309E-03  4136   0.208E-02    0.130E-02
RMM:   2    -0.232301547938E+04   -0.69523E-05   -0.65079E-05  3102   0.516E-03
 183 F= -.23444469E+04 E0= -.23444469E+04  d E =-.114770E-03  mag=     4.0000
       N       E                     dE             d eps       ncg     rms          rms(c)
DAV:   1    -0.232301553839E+04   -0.65955E-04   -0.35889E-04  4140   0.129E-02    0.132E-02
RMM:   2    -0.232301554540E+04   -0.70156E-05   -0.28942E-05  2694   0.403E-03
 184 F= -.23444470E+04 E0= -.23444470E+04  d E =-.659252E-04  mag=     4.0000
       N       E                     dE             d eps       ncg     rms          rms(c)
DAV:   1    -0.232301546789E+04    0.70491E-04   -0.49400E-04  4168   0.161E-02    0.553E-03
RMM:   2    -0.232301547038E+04   -0.24900E-05   -0.21534E-05  2507   0.387E-03
 185 F= -.23444469E+04 E0= -.23444469E+04  d E =0.758069E-04  mag=     4.0000
       N       E                     dE             d eps       ncg     rms          rms(c)
DAV:   1    -0.232301564430E+04   -0.17641E-03   -0.36860E-03  4240   0.363E-02    0.167E-02
RMM:   2    -0.232301566103E+04   -0.16733E-04   -0.16988E-04  3663   0.898E-03    0.191E-02
RMM:   3    -0.232301566043E+04    0.60145E-06   -0.20480E-05  2535   0.445E-03
 186 F= -.23444471E+04 E0= -.23444471E+04  d E =-.199773E-03  mag=     4.0000
       N       E                     dE             d eps       ncg     rms          rms(c)
DAV:   1    -0.232301573299E+04   -0.71959E-04   -0.61338E-04  4136   0.165E-02    0.114E-02
RMM:   2    -0.232301573781E+04   -0.48193E-05   -0.39758E-05  2826   0.440E-03
 187 F= -.23444472E+04 E0= -.23444472E+04  d E =-.842825E-04  mag=     4.0000
       N       E                     dE             d eps       ncg     rms          rms(c)
DAV:   1    -0.232301578305E+04   -0.50061E-04   -0.24701E-04  4016   0.109E-02    0.965E-03
RMM:   2    -0.232301578665E+04   -0.35958E-05   -0.21270E-05  2631   0.356E-03
 188 F= -.23444473E+04 E0= -.23444473E+04  d E =-.507072E-04  mag=     4.0000
       N       E                     dE             d eps       ncg     rms          rms(c)
DAV:   1    -0.232301592027E+04   -0.13722E-03   -0.22727E-03  4200   0.297E-02    0.165E-02
RMM:   2    -0.232301593213E+04   -0.11856E-04   -0.13556E-04  3517   0.782E-03    0.115E-02
RMM:   3    -0.232301593490E+04   -0.27680E-05   -0.19119E-05  2537   0.437E-03
 189 F= -.23444474E+04 E0= -.23444474E+04  d E =-.152533E-03  mag=     4.0000
       N       E                     dE             d eps       ncg     rms          rms(c)
DAV:   1    -0.232301604441E+04   -0.11228E-03   -0.15093E-03  4152   0.234E-02    0.147E-02
RMM:   2    -0.232301605489E+04   -0.10477E-04   -0.84995E-05  3152   0.596E-03    0.228E-02
RMM:   3    -0.232301605141E+04    0.34780E-05   -0.11665E-05  2436   0.333E-03
 190 F= -.23444475E+04 E0= -.23444475E+04  d E =-.127566E-03  mag=     4.0000
       N       E                     dE             d eps       ncg     rms          rms(c)
DAV:   1    -0.232301599518E+04    0.59707E-04   -0.34351E-04  3932   0.111E-02    0.705E-03
RMM:   2    -0.232301599970E+04   -0.45161E-05   -0.21545E-05  2526   0.287E-03
 191 F= -.23444475E+04 E0= -.23444475E+04  d E =0.552264E-04  mag=     4.0000
       N       E                     dE             d eps       ncg     rms          rms(c)
DAV:   1    -0.232301598620E+04    0.89859E-05   -0.17698E-05  2800   0.503E-03    0.472E-03
RMM:   2    -0.232301598811E+04   -0.19161E-05   -0.56534E-06  2186   0.211E-03
 192 F= -.23444475E+04 E0= -.23444475E+04  d E =0.124183E-04  mag=     4.0000
       N       E                     dE             d eps       ncg     rms          rms(c)
DAV:   1    -0.232301600321E+04   -0.17015E-04   -0.38599E-05  2832   0.562E-03    0.223E-03
RMM:   2    -0.232301600382E+04   -0.60879E-06   -0.63123E-06  2193   0.219E-03
 193 F= -.23444475E+04 E0= -.23444475E+04  d E =-.133071E-04  mag=     4.0000
       N       E                     dE             d eps       ncg     rms          rms(c)
DAV:   1    -0.232301614119E+04   -0.13798E-03   -0.28074E-03  4424   0.411E-02    0.152E-02
RMM:   2    -0.232301616617E+04   -0.24978E-04   -0.26435E-04  3947   0.986E-03    0.145E-02
RMM:   3    -0.232301616776E+04   -0.15937E-05   -0.31551E-05  2473   0.498E-03
 194 F= -.23444476E+04 E0= -.23444476E+04  d E =-.146827E-03  mag=     4.0000
       N       E                     dE             d eps       ncg     rms          rms(c)
DAV:   1    -0.232301631065E+04   -0.14447E-03   -0.23333E-03  4104   0.263E-02    0.168E-02
RMM:   2    -0.232301632460E+04   -0.13955E-04   -0.14676E-04  3499   0.661E-03    0.162E-02
RMM:   3    -0.232301632542E+04   -0.82010E-06   -0.20183E-05  2513   0.389E-03
 195 F= -.23444478E+04 E0= -.23444478E+04  d E =-.157506E-03  mag=     4.0000
       N       E                     dE             d eps       ncg     rms          rms(c)
DAV:   1    -0.232301635473E+04   -0.30129E-04   -0.90265E-05  3928   0.708E-03    0.787E-03
RMM:   2    -0.232301635754E+04   -0.28147E-05   -0.14155E-05  2414   0.255E-03
 196 F= -.23444478E+04 E0= -.23444478E+04  d E =-.315212E-04  mag=     4.0000
       N       E                     dE             d eps       ncg     rms          rms(c)
DAV:   1    -0.232301642076E+04   -0.66028E-04   -0.53642E-04  3896   0.139E-02    0.888E-03
RMM:   2    -0.232301642476E+04   -0.40048E-05   -0.42447E-05  2651   0.391E-03
 197 F= -.23444479E+04 E0= -.23444479E+04  d E =-.707995E-04  mag=     4.0000
       N       E                     dE             d eps       ncg     rms          rms(c)
DAV:   1    -0.232301648491E+04   -0.64152E-04   -0.18005E-03  4456   0.385E-02    0.174E-02
RMM:   2    -0.232301650527E+04   -0.20359E-04   -0.18427E-04  4105   0.102E-02    0.233E-02
RMM:   3    -0.232301650080E+04    0.44721E-05   -0.21021E-05  2695   0.524E-03
 198 F= -.23444480E+04 E0= -.23444480E+04  d E =-.976198E-04  mag=     4.0000
       N       E                     dE             d eps       ncg     rms          rms(c)
DAV:   1    -0.232301658898E+04   -0.83714E-04   -0.98572E-04  4336   0.244E-02    0.144E-02
RMM:   2    -0.232301659842E+04   -0.94350E-05   -0.73089E-05  3155   0.650E-03
 199 F= -.23444481E+04 E0= -.23444481E+04  d E =-.105646E-03  mag=     4.0000
       N       E                     dE             d eps       ncg     rms          rms(c)
DAV:   1    -0.232301670371E+04   -0.11473E-03   -0.13649E-03  4144   0.235E-02    0.164E-02
RMM:   2    -0.232301671442E+04   -0.10710E-04   -0.82622E-05  3239   0.609E-03    0.259E-02
RMM:   3    -0.232301671002E+04    0.43970E-05   -0.11678E-05  2450   0.353E-03
 200 F= -.23444482E+04 E0= -.23444482E+04  d E =-.114858E-03  mag=     4.0000
       N       E                     dE             d eps       ncg     rms          rms(c)
DAV:   1    -0.232301679553E+04   -0.81106E-04   -0.90398E-04  4136   0.187E-02    0.102E-02
RMM:   2    -0.232301680075E+04   -0.52215E-05   -0.51315E-05  2895   0.477E-03
 201 F= -.23444483E+04 E0= -.23444483E+04  d E =-.986678E-04  mag=     4.0000
