       N       E                     dE             d eps       ncg     rms          rms(c)
DAV:   1     0.127174329999E+05    0.12717E+05   -0.84787E+05  4640   0.143E+03
DAV:   2    -0.122540966722E+04   -0.13943E+05   -0.13373E+05  5120   0.325E+02
DAV:   3    -0.250373093167E+04   -0.12783E+04   -0.12675E+04  5440   0.107E+02
DAV:   4    -0.253470663060E+04   -0.30976E+02   -0.30780E+02  5600   0.212E+01
DAV:   5    -0.253579875297E+04   -0.10921E+01   -0.10901E+01  5920   0.325E+00    0.170E+02
RMM:   6    -0.149995718962E+04    0.10358E+04   -0.19556E+03  4510   0.380E+01    0.728E+01
RMM:   7    -0.166804514902E+04   -0.16809E+03   -0.29334E+02  5135   0.146E+01    0.530E+01
RMM:   8    -0.172072902611E+04   -0.52684E+02   -0.79400E+01  5446   0.810E+00    0.440E+01
RMM:   9    -0.179448641187E+04   -0.73757E+02   -0.63096E+01  5052   0.773E+00    0.346E+01
RMM:  10    -0.190787790157E+04   -0.11339E+03   -0.60704E+01  5444   0.752E+00    0.279E+01
RMM:  11    -0.199232569891E+04   -0.84448E+02   -0.35769E+01  5419   0.523E+00    0.188E+01
RMM:  12    -0.207911359892E+04   -0.86788E+02   -0.35088E+01  4808   0.476E+00    0.156E+01
RMM:  13    -0.215514435807E+04   -0.76031E+02   -0.36815E+01  4955   0.466E+00    0.145E+01
RMM:  14    -0.223943551302E+04   -0.84291E+02   -0.55663E+01  4630   0.571E+00    0.889E+00
RMM:  15    -0.231009825901E+04   -0.70663E+02   -0.67003E+01  4702   0.567E+00    0.480E+00
RMM:  16    -0.232208489052E+04   -0.11987E+02   -0.14344E+01  4804   0.348E+00    0.345E+00
RMM:  17    -0.232735814542E+04   -0.52733E+01   -0.72517E+00  4876   0.140E+00    0.308E+00
RMM:  18    -0.232915415273E+04   -0.17960E+01   -0.16500E+00  4937   0.106E+00    0.185E+00
RMM:  19    -0.233036142979E+04   -0.12073E+01   -0.10705E+00  4839   0.541E-01    0.119E+00
RMM:  20    -0.233090379245E+04   -0.54236E+00   -0.45135E-01  4721   0.405E-01    0.626E-01
RMM:  21    -0.233106920850E+04   -0.16542E+00   -0.23136E-01  4839   0.234E-01    0.460E-01
RMM:  22    -0.233111446791E+04   -0.45259E-01   -0.46301E-02  4813   0.143E-01    0.213E-01
RMM:  23    -0.233113941452E+04   -0.24947E-01   -0.15883E-02  4669   0.792E-02    0.127E-01
RMM:  24    -0.233114981876E+04   -0.10404E-01   -0.36719E-03  4871   0.543E-02    0.859E-02
RMM:  25    -0.233115810320E+04   -0.82844E-02   -0.22390E-03  4547   0.336E-02    0.550E-02
RMM:  26    -0.233116362849E+04   -0.55253E-02   -0.14801E-03  4570   0.296E-02    0.366E-02
RMM:  27    -0.233116639185E+04   -0.27634E-02   -0.78329E-04  4448   0.211E-02    0.244E-02
RMM:  28    -0.233116817318E+04   -0.17813E-02   -0.51692E-04  4128   0.155E-02    0.206E-02
RMM:  29    -0.233116858692E+04   -0.41374E-03   -0.12963E-04  3886   0.110E-02    0.958E-03
RMM:  30    -0.233116882781E+04   -0.24088E-03   -0.65303E-05  3621   0.606E-03    0.552E-03
RMM:  31    -0.233116893008E+04   -0.10228E-03   -0.21167E-05  3076   0.511E-03    0.359E-03
RMM:  32    -0.233116897437E+04   -0.44289E-04   -0.11648E-05  2958   0.330E-03    0.179E-03
RMM:  33    -0.233116899713E+04   -0.22762E-04   -0.67080E-06  2812   0.283E-03    0.105E-03
RMM:  34    -0.233116900292E+04   -0.57908E-05   -0.32870E-06  2497   0.211E-03
   1 F= -.23526026E+04 E0= -.23526025E+04  d E =-.177626E-03  mag=     3.9986
       N       E                     dE             d eps       ncg     rms          rms(c)
DAV:   1    -0.233116687656E+04    0.21206E-02   -0.19683E+00  4480   0.607E-01    0.272E-01
RMM:   2    -0.233116693564E+04   -0.59082E-04   -0.79728E-03  4231   0.377E-02    0.211E-01
RMM:   3    -0.233116705555E+04   -0.11990E-03   -0.22295E-03  4809   0.216E-02    0.272E-01
RMM:   4    -0.233116647439E+04    0.58115E-03   -0.76681E-04  4265   0.122E-02    0.996E-02
RMM:   5    -0.233116650182E+04   -0.27427E-04   -0.39338E-04  3454   0.983E-03    0.942E-02
RMM:   6    -0.233116638736E+04    0.11446E-03   -0.94372E-05  3227   0.585E-03    0.215E-02
RMM:   7    -0.233116638982E+04   -0.24542E-05   -0.19735E-05  2763   0.274E-03
   2 F= -.23526003E+04 E0= -.23526002E+04  d E =-.204368E-03  mag=     3.9984
       N       E                     dE             d eps       ncg     rms          rms(c)
DAV:   1    -0.233116453245E+04    0.18549E-02   -0.78444E+00  4480   0.119E+00    0.543E-01
RMM:   2    -0.233116424618E+04    0.28627E-03   -0.26801E-02  4494   0.740E-02    0.404E-01
RMM:   3    -0.233116490666E+04   -0.66048E-03   -0.81734E-03  5403   0.434E-02    0.532E-01
RMM:   4    -0.233116262799E+04    0.22787E-02   -0.32358E-03  5212   0.246E-02    0.196E-01
RMM:   5    -0.233116271470E+04   -0.86704E-04   -0.14637E-03  4542   0.176E-02    0.179E-01
RMM:   6    -0.233116230548E+04    0.40921E-03   -0.33630E-04  4103   0.100E-02    0.431E-02
RMM:   7    -0.233116232111E+04   -0.15631E-04   -0.80080E-05  2976   0.467E-03    0.454E-02
RMM:   8    -0.233116230028E+04    0.20835E-04   -0.44156E-05  2839   0.404E-03    0.174E-02
RMM:   9    -0.233116230117E+04   -0.88998E-06   -0.63053E-06  2688   0.206E-03
   3 F= -.23525956E+04 E0= -.23525955E+04  d E =-.145034E-03  mag=     3.9987
       N       E                     dE             d eps       ncg     rms          rms(c)
DAV:   1    -0.233116851702E+04   -0.62167E-02   -0.37765E+00  4480   0.947E-01    0.374E-01
RMM:   2    -0.233116918001E+04   -0.66300E-03   -0.12508E-02  4330   0.548E-02    0.343E-01
RMM:   3    -0.233116875906E+04    0.42095E-03   -0.37513E-03  4476   0.321E-02    0.284E-01
RMM:   4    -0.233116816930E+04    0.58975E-03   -0.13324E-03  4396   0.166E-02    0.166E-01
RMM:   5    -0.233116799282E+04    0.17648E-03   -0.59646E-04  3741   0.139E-02    0.103E-01
RMM:   6    -0.233116790452E+04    0.88302E-04   -0.97682E-05  3011   0.557E-03    0.361E-02
RMM:   7    -0.233116789654E+04    0.79849E-05   -0.38347E-05  2778   0.368E-03
   4 F= -.23525999E+04 E0= -.23525998E+04  d E =-.118274E-03  mag=     3.9989
       N       E                     dE             d eps       ncg     rms          rms(c)
DAV:   1    -0.233113583739E+04    0.32067E-01   -0.79513E+00  4480   0.151E+00    0.649E-01
RMM:   2    -0.233113789584E+04   -0.20585E-02   -0.43487E-02  4739   0.105E-01    0.606E-01
RMM:   3    -0.233113579322E+04    0.21026E-02   -0.10873E-02  5523   0.556E-02    0.467E-01
RMM:   4    -0.233113321209E+04    0.25811E-02   -0.45931E-03  5273   0.305E-02    0.130E-01
RMM:   5    -0.233113335839E+04   -0.14630E-03   -0.99838E-04  4615   0.155E-02    0.161E-01
RMM:   6    -0.233113305816E+04    0.30023E-03   -0.27575E-04  3308   0.803E-03    0.402E-02
RMM:   7    -0.233113306459E+04   -0.64279E-05   -0.10387E-04  3218   0.485E-03    0.537E-02
RMM:   8    -0.233113303348E+04    0.31112E-04   -0.45520E-05  2860   0.397E-03    0.131E-02
RMM:   9    -0.233113303229E+04    0.11863E-05   -0.13539E-05  2850   0.251E-03
   5 F= -.23525682E+04 E0= -.23525681E+04  d E =-.254428E-03  mag=     3.9981
       N       E                     dE             d eps       ncg     rms          rms(c)
DAV:   1    -0.233117801407E+04   -0.44981E-01   -0.42290E+00  4640   0.111E+00    0.460E-01
RMM:   2    -0.233117841750E+04   -0.40343E-03   -0.22944E-02  4321   0.727E-02    0.372E-01
RMM:   3    -0.233117807327E+04    0.34423E-03   -0.51060E-03  5549   0.372E-02    0.367E-01
RMM:   4    -0.233117644735E+04    0.16259E-02   -0.29971E-03  5248   0.236E-02    0.136E-01
RMM:   5    -0.233117651660E+04   -0.69253E-04   -0.74546E-04  3892   0.117E-02    0.153E-01
RMM:   6    -0.233117630041E+04    0.21619E-03   -0.18685E-04  3000   0.652E-03    0.337E-02
RMM:   7    -0.233117629667E+04    0.37406E-05   -0.54678E-05  2918   0.403E-03
   6 F= -.23526114E+04 E0= -.23526113E+04  d E =-.185964E-03  mag=     3.9983
       N       E                     dE             d eps       ncg     rms          rms(c)
DAV:   1    -0.233115086238E+04    0.25438E-01   -0.77434E+00  4480   0.141E+00    0.565E-01
RMM:   2    -0.233115107035E+04   -0.20797E-03   -0.39041E-02  4280   0.873E-02    0.394E-01
RMM:   3    -0.233115289003E+04   -0.18197E-02   -0.10407E-02  5788   0.522E-02    0.580E-01
RMM:   4    -0.233114884396E+04    0.40461E-02   -0.44095E-03  5530   0.300E-02    0.231E-01
RMM:   5    -0.233114866176E+04    0.18219E-03   -0.15965E-03  4630   0.159E-02    0.176E-01
RMM:   6    -0.233114840353E+04    0.25823E-03   -0.28050E-04  3624   0.849E-03    0.340E-02
RMM:   7    -0.233114841275E+04   -0.92112E-05   -0.75231E-05  3147   0.535E-03
   7 F= -.23525804E+04 E0= -.23525803E+04  d E =-.177176E-03  mag=     3.9984
       N       E                     dE             d eps       ncg     rms          rms(c)
DAV:   1    -0.233115781814E+04   -0.94146E-02   -0.41235E+00  4480   0.111E+00    0.394E-01
RMM:   2    -0.233115735290E+04    0.46524E-03   -0.20916E-02  4033   0.676E-02    0.252E-01
RMM:   3    -0.233115782366E+04   -0.47075E-03   -0.47656E-03  5461   0.332E-02    0.361E-01
RMM:   4    -0.233115608356E+04    0.17401E-02   -0.27767E-03  5069   0.232E-02    0.477E-02
RMM:   5    -0.233115609282E+04   -0.92665E-05   -0.25769E-04  3182   0.703E-03    0.693E-02
RMM:   6    -0.233115604801E+04    0.44812E-04   -0.64720E-05  2769   0.422E-03    0.233E-02
RMM:   7    -0.233115604914E+04   -0.11267E-05   -0.30360E-05  2828   0.300E-03
   8 F= -.23525893E+04 E0= -.23525892E+04  d E =-.202263E-03  mag=     3.9983
       N       E                     dE             d eps       ncg     rms          rms(c)
DAV:   1    -0.233115116088E+04    0.48871E-02   -0.86345E+00  4480   0.150E+00    0.610E-01
RMM:   2    -0.233114561087E+04    0.55500E-02   -0.31138E-02  4015   0.896E-02    0.367E-01
RMM:   3    -0.233114891670E+04   -0.33058E-02   -0.15292E-02  5488   0.625E-02    0.717E-01
RMM:   4    -0.233114310163E+04    0.58151E-02   -0.59553E-03  5404   0.329E-02    0.110E-01
RMM:   5    -0.233114314231E+04   -0.40677E-04   -0.89209E-04  3940   0.119E-02    0.129E-01
RMM:   6    -0.233114294060E+04    0.20171E-03   -0.21800E-04  3195   0.751E-03    0.305E-02
RMM:   7    -0.233114293549E+04    0.51075E-05   -0.87452E-05  3215   0.457E-03
   9 F= -.23525769E+04 E0= -.23525768E+04  d E =-.153162E-03  mag=     3.9986
       N       E                     dE             d eps       ncg     rms          rms(c)
DAV:   1    -0.233113301878E+04    0.99218E-02   -0.43190E+00  4480   0.109E+00    0.418E-01
RMM:   2    -0.233113051343E+04    0.25054E-02   -0.15341E-02  3876   0.602E-02    0.238E-01
RMM:   3    -0.233113084159E+04   -0.32815E-03   -0.63691E-03  5362   0.357E-02    0.334E-01
RMM:   4    -0.233112941032E+04    0.14313E-02   -0.18443E-03  4962   0.206E-02    0.940E-02
RMM:   5    -0.233112940837E+04    0.19588E-05   -0.35714E-04  3241   0.746E-03    0.887E-02
RMM:   6    -0.233112932431E+04    0.84054E-04   -0.91757E-05  2807   0.523E-03    0.186E-02
RMM:   7    -0.233112932275E+04    0.15580E-05   -0.30850E-05  2815   0.281E-03
  10 F= -.23525646E+04 E0= -.23525645E+04  d E =-.192241E-03  mag=     3.9985
       N       E                     dE             d eps       ncg     rms          rms(c)
DAV:   1    -0.233118401192E+04   -0.54688E-01   -0.85919E+00  4480   0.151E+00    0.638E-01
RMM:   2    -0.233117694911E+04    0.70628E-02   -0.34689E-02  4037   0.885E-02    0.399E-01
RMM:   3    -0.233118104324E+04   -0.40941E-02   -0.14447E-02  5837   0.583E-02    0.810E-01
RMM:   4    -0.233117369962E+04    0.73436E-02   -0.70267E-03  5524   0.355E-02    0.114E-01
RMM:   5    -0.233117388608E+04   -0.18646E-03   -0.13201E-03  4344   0.154E-02    0.164E-01
RMM:   6    -0.233117357107E+04    0.31501E-03   -0.35181E-04  3285   0.868E-03    0.289E-02
RMM:   7    -0.233117356106E+04    0.10004E-04   -0.56544E-05  3094   0.395E-03    0.176E-02
RMM:   8    -0.233117356489E+04   -0.38240E-05   -0.30333E-05  2982   0.383E-03
  11 F= -.23526054E+04 E0= -.23526053E+04  d E =-.161946E-03  mag=     3.9986
       N       E                     dE             d eps       ncg     rms          rms(c)
DAV:   1    -0.233114725017E+04    0.26311E-01   -0.42811E+00  4480   0.111E+00    0.420E-01
RMM:   2    -0.233114512720E+04    0.21230E-02   -0.16078E-02  3900   0.631E-02    0.301E-01
RMM:   3    -0.233114656992E+04   -0.14427E-02   -0.59220E-03  5551   0.408E-02    0.495E-01
RMM:   4    -0.233114382865E+04    0.27413E-02   -0.40134E-03  4866   0.265E-02    0.157E-01
RMM:   5    -0.233114360602E+04    0.22263E-03   -0.82841E-04  3917   0.177E-02    0.751E-02
RMM:   6    -0.233114353885E+04    0.67172E-04   -0.97763E-05  3202   0.509E-03    0.196E-02
RMM:   7    -0.233114353298E+04    0.58662E-05   -0.30024E-05  2922   0.316E-03
  12 F= -.23525753E+04 E0= -.23525752E+04  d E =-.177697E-03  mag=     3.9985
       N       E                     dE             d eps       ncg     rms          rms(c)
DAV:   1    -0.233117636472E+04   -0.32826E-01   -0.82866E+00  4480   0.149E+00    0.530E-01
RMM:   2    -0.233117439444E+04    0.19703E-02   -0.32368E-02  4388   0.846E-02    0.399E-01
RMM:   3    -0.233117478307E+04   -0.38864E-03   -0.81558E-03  5719   0.478E-02    0.504E-01
RMM:   4    -0.233117197045E+04    0.28126E-02   -0.54164E-03  5146   0.317E-02    0.263E-01
RMM:   5    -0.233117137344E+04    0.59700E-03   -0.11625E-03  4048   0.196E-02    0.910E-02
RMM:   6    -0.233117129555E+04    0.77890E-04   -0.12818E-04  3296   0.577E-03    0.282E-02
RMM:   7    -0.233117130334E+04   -0.77839E-05   -0.48580E-05  2917   0.399E-03
  13 F= -.23526065E+04 E0= -.23526065E+04  d E =-.177824E-03  mag=     3.9985
       N       E                     dE             d eps       ncg     rms          rms(c)
DAV:   1    -0.233116648319E+04    0.48124E-02   -0.23972E+00  4480   0.794E-01    0.315E-01
RMM:   2    -0.233116594066E+04    0.54252E-03   -0.95149E-03  3823   0.471E-02    0.214E-01
RMM:   3    -0.233116674566E+04   -0.80500E-03   -0.30297E-03  5426   0.263E-02    0.348E-01
RMM:   4    -0.233116534554E+04    0.14001E-02   -0.17488E-03  4810   0.189E-02    0.131E-01
RMM:   5    -0.233116519296E+04    0.15259E-03   -0.36295E-04  3410   0.988E-03    0.491E-02
RMM:   6    -0.233116516610E+04    0.26852E-04   -0.43989E-05  2856   0.376E-03    0.140E-02
RMM:   7    -0.233116516369E+04    0.24186E-05   -0.13948E-05  2638   0.249E-03
  14 F= -.23525984E+04 E0= -.23525983E+04  d E =-.179710E-03  mag=     3.9985
       N       E                     dE             d eps       ncg     rms          rms(c)
DAV:   1    -0.233116784376E+04   -0.26777E-02   -0.12282E+00  4560   0.507E-01    0.383E-01
RMM:   2    -0.233116689484E+04    0.94892E-03   -0.89858E-03  4034   0.370E-02    0.212E-01
RMM:   3    -0.233116691929E+04   -0.24453E-04   -0.14507E-03  4431   0.216E-02    0.176E-01
RMM:   4    -0.233116677799E+04    0.14131E-03   -0.85502E-04  4195   0.122E-02    0.129E-01
RMM:   5    -0.233116672278E+04    0.55206E-04   -0.21145E-04  3290   0.734E-03    0.882E-02
RMM:   6    -0.233116662479E+04    0.97990E-04   -0.74445E-05  2924   0.562E-03    0.151E-02
RMM:   7    -0.233116662382E+04    0.96911E-06   -0.97861E-06  2561   0.229E-03
  15 F= -.23526006E+04 E0= -.23526005E+04  d E =-.175673E-03  mag=     3.9985
       N       E                     dE             d eps       ncg     rms          rms(c)
DAV:   1    -0.233116886610E+04   -0.22413E-02   -0.60982E-01  4720   0.353E-01    0.256E-01
RMM:   2    -0.233116852317E+04    0.34293E-03   -0.36548E-03  3746   0.259E-02    0.147E-01
RMM:   3    -0.233116870392E+04   -0.18075E-03   -0.10152E-03  4519   0.169E-02    0.160E-01
RMM:   4    -0.233116842073E+04    0.28319E-03   -0.52189E-04  3875   0.109E-02    0.447E-02
RMM:   5    -0.233116840399E+04    0.16737E-04   -0.52374E-05  2970   0.432E-03    0.184E-02
RMM:   6    -0.233116840368E+04    0.31282E-06   -0.14321E-05  2474   0.257E-03
  16 F= -.23526022E+04 E0= -.23526021E+04  d E =-.179898E-03  mag=     3.9985
       N       E                     dE             d eps       ncg     rms          rms(c)
DAV:   1    -0.233115232346E+04    0.16081E-01   -0.13152E+00  5040   0.534E-01    0.619E-01
RMM:   2    -0.233114578537E+04    0.65381E-02   -0.22930E-02  4075   0.609E-02    0.306E-01
RMM:   3    -0.233114510757E+04    0.67781E-03   -0.37925E-03  4274   0.404E-02    0.190E-01
RMM:   4    -0.233114545859E+04   -0.35102E-03   -0.22508E-03  4943   0.224E-02    0.227E-01
RMM:   5    -0.233114487077E+04    0.58782E-03   -0.54475E-04  4428   0.120E-02    0.114E-01
RMM:   6    -0.233114475368E+04    0.11709E-03   -0.14766E-04  3006   0.602E-03    0.345E-02
RMM:   7    -0.233114473981E+04    0.13876E-04   -0.18790E-05  2721   0.319E-03    0.980E-03
RMM:   8    -0.233114474057E+04   -0.75836E-06   -0.10061E-05  2547   0.242E-03
  17 F= -.23525781E+04 E0= -.23525780E+04  d E =-.177100E-03  mag=     3.9985
       N       E                     dE             d eps       ncg     rms          rms(c)
DAV:   1    -0.233116505983E+04   -0.20320E-01   -0.63120E-01  4960   0.357E-01    0.365E-01
RMM:   2    -0.233116310462E+04    0.19552E-02   -0.82983E-03  4127   0.354E-02    0.185E-01
RMM:   3    -0.233116299535E+04    0.10927E-03   -0.12229E-03  4015   0.219E-02    0.152E-01
RMM:   4    -0.233116291317E+04    0.82182E-04   -0.78170E-04  4312   0.124E-02    0.123E-01
RMM:   5    -0.233116281445E+04    0.98715E-04   -0.18359E-04  3191   0.705E-03    0.743E-02
RMM:   6    -0.233116275248E+04    0.61969E-04   -0.64315E-05  2795   0.507E-03    0.221E-02
RMM:   7    -0.233116274915E+04    0.33302E-05   -0.10206E-05  2471   0.229E-03
  18 F= -.23525965E+04 E0= -.23525964E+04  d E =-.173688E-03  mag=     3.9986
       N       E                     dE             d eps       ncg     rms          rms(c)
DAV:   1    -0.233117318377E+04   -0.10431E-01   -0.11946E+00  4480   0.506E-01    0.332E-01
RMM:   2    -0.233117338333E+04   -0.19956E-03   -0.57224E-03  4078   0.325E-02    0.215E-01
RMM:   3    -0.233117434575E+04   -0.96242E-03   -0.25577E-03  5018   0.244E-02    0.327E-01
RMM:   4    -0.233117308756E+04    0.12582E-02   -0.12722E-03  4467   0.171E-02    0.492E-02
RMM:   5    -0.233117312132E+04   -0.33755E-04   -0.21110E-04  3142   0.698E-03    0.723E-02
RMM:   6    -0.233117306309E+04    0.58231E-04   -0.44336E-05  2703   0.409E-03    0.125E-02
RMM:   7    -0.233117306355E+04   -0.45932E-06   -0.10439E-05  2447   0.181E-03
  19 F= -.23526064E+04 E0= -.23526063E+04  d E =-.180504E-03  mag=     3.9985
       N       E                     dE             d eps       ncg     rms          rms(c)
DAV:   1    -0.233116953011E+04    0.35330E-02   -0.60624E-01  4720   0.388E-01    0.246E-01
RMM:   2    -0.233116944112E+04    0.88989E-04   -0.30261E-03  3667   0.271E-02    0.149E-01
RMM:   3    -0.233116992202E+04   -0.48090E-03   -0.12223E-03  4545   0.164E-02    0.230E-01
RMM:   4    -0.233116937616E+04    0.54586E-03   -0.62765E-04  3693   0.109E-02    0.527E-02
RMM:   5    -0.233116938475E+04   -0.85846E-05   -0.14296E-04  2982   0.571E-03    0.591E-02
RMM:   6    -0.233116934223E+04    0.42522E-04   -0.40105E-05  2659   0.403E-03    0.878E-03
RMM:   7    -0.233116934294E+04   -0.71772E-06   -0.78418E-06  2312   0.189E-03
  20 F= -.23526024E+04 E0= -.23526023E+04  d E =-.176740E-03  mag=     3.9985
       N       E                     dE             d eps       ncg     rms          rms(c)
DAV:   1    -0.233116239805E+04    0.69442E-02   -0.12346E+00  4640   0.529E-01    0.382E-01
RMM:   2    -0.233116140501E+04    0.99304E-03   -0.81513E-03  3806   0.383E-02    0.214E-01
RMM:   3    -0.233116141251E+04   -0.75022E-05   -0.17001E-03  4368   0.239E-02    0.186E-01
RMM:   4    -0.233116128104E+04    0.13148E-03   -0.76401E-04  4155   0.116E-02    0.132E-01
RMM:   5    -0.233116113528E+04    0.14576E-03   -0.12148E-04  3313   0.706E-03    0.282E-02
RMM:   6    -0.233116113644E+04   -0.11657E-05   -0.40660E-05  2746   0.404E-03
  21 F= -.23525952E+04 E0= -.23525951E+04  d E =-.177977E-03  mag=     3.9985
       N       E                     dE             d eps       ncg     rms          rms(c)
DAV:   1    -0.233117201820E+04   -0.10883E-01   -0.63310E-01  4960   0.385E-01    0.348E-01
RMM:   2    -0.233117034267E+04    0.16755E-02   -0.72450E-03  3892   0.354E-02    0.181E-01
RMM:   3    -0.233117012655E+04    0.21612E-03   -0.12454E-03  4235   0.202E-02    0.105E-01
RMM:   4    -0.233117030063E+04   -0.17408E-03   -0.62546E-04  4285   0.110E-02    0.159E-01
RMM:   5    -0.233117005877E+04    0.24186E-03   -0.18570E-04  3147   0.716E-03    0.440E-02
RMM:   6    -0.233117004492E+04    0.13852E-04   -0.52413E-05  2690   0.417E-03    0.282E-02
RMM:   7    -0.233117003561E+04    0.93088E-05   -0.94625E-06  2429   0.237E-03
  22 F= -.23526035E+04 E0= -.23526034E+04  d E =-.174305E-03  mag=     3.9986
       N       E                     dE             d eps       ncg     rms          rms(c)
DAV:   1    -0.233115954036E+04    0.10505E-01   -0.12522E+00  4880   0.534E-01    0.448E-01
RMM:   2    -0.233115715217E+04    0.23882E-02   -0.11564E-02  3958   0.448E-02    0.237E-01
RMM:   3    -0.233115693812E+04    0.21405E-03   -0.19069E-03  4389   0.259E-02    0.154E-01
RMM:   4    -0.233115711346E+04   -0.17534E-03   -0.11443E-03  4807   0.158E-02    0.187E-01
RMM:   5    -0.233115679120E+04    0.32225E-03   -0.33282E-04  3536   0.912E-03    0.867E-02
RMM:   6    -0.233115671588E+04    0.75321E-04   -0.10113E-04  2876   0.561E-03    0.244E-02
RMM:   7    -0.233115670991E+04    0.59760E-05   -0.12445E-05  2567   0.259E-03
  23 F= -.23525904E+04 E0= -.23525903E+04  d E =-.180831E-03  mag=     3.9985
       N       E                     dE             d eps       ncg     rms          rms(c)
DAV:   1    -0.233117552634E+04   -0.18810E-01   -0.65313E-01  5040   0.395E-01    0.417E-01
RMM:   2    -0.233117272399E+04    0.28024E-02   -0.11083E-02  3879   0.440E-02    0.211E-01
RMM:   3    -0.233117232662E+04    0.39737E-03   -0.19293E-03  4072   0.266E-02    0.110E-01
RMM:   4    -0.233117254125E+04   -0.21463E-03   -0.97279E-04  4356   0.139E-02    0.153E-01
RMM:   5    -0.233117221984E+04    0.32141E-03   -0.23492E-04  3573   0.869E-03    0.262E-02
RMM:   6    -0.233117222241E+04   -0.25714E-05   -0.35125E-05  2781   0.360E-03
  24 F= -.23526053E+04 E0= -.23526052E+04  d E =-.188510E-03  mag=     3.9985
       N       E                     dE             d eps       ncg     rms          rms(c)
DAV:   1    -0.233115513390E+04    0.17086E-01   -0.12517E+00  4960   0.546E-01    0.506E-01
RMM:   2    -0.233115174845E+04    0.33854E-02   -0.15216E-02  3906   0.512E-02    0.264E-01
RMM:   3    -0.233115140154E+04    0.34690E-03   -0.31085E-03  4567   0.321E-02    0.189E-01
RMM:   4    -0.233115128704E+04    0.11450E-03   -0.14947E-03  4630   0.177E-02    0.142E-01
RMM:   5    -0.233115100997E+04    0.27707E-03   -0.22573E-04  3776   0.892E-03    0.204E-02
RMM:   6    -0.233115101303E+04   -0.30613E-05   -0.28248E-05  2858   0.377E-03
  25 F= -.23525851E+04 E0= -.23525850E+04  d E =-.168772E-03  mag=     3.9986
       N       E                     dE             d eps       ncg     rms          rms(c)
DAV:   1    -0.233115022836E+04    0.78161E-03   -0.63066E-01  5120   0.404E-01    0.357E-01
RMM:   2    -0.233114921916E+04    0.10092E-02   -0.56512E-03  3568   0.373E-02    0.206E-01
RMM:   3    -0.233114896755E+04    0.25161E-03   -0.20207E-03  4419   0.217E-02    0.135E-01
RMM:   4    -0.233114873782E+04    0.22973E-03   -0.53362E-04  4016   0.128E-02    0.486E-02
RMM:   5    -0.233114870169E+04    0.36131E-04   -0.43711E-05  2968   0.409E-03    0.258E-02
RMM:   6    -0.233114869738E+04    0.43156E-05   -0.17851E-05  2283   0.263E-03
  26 F= -.23525826E+04 E0= -.23525825E+04  d E =-.184613E-03  mag=     3.9985
       N       E                     dE             d eps       ncg     rms          rms(c)
DAV:   1    -0.233116965880E+04   -0.20957E-01   -0.13477E+00  4800   0.539E-01    0.620E-01
RMM:   2    -0.233116326923E+04    0.63896E-02   -0.25604E-02  4043   0.686E-02    0.315E-01
RMM:   3    -0.233116230937E+04    0.95986E-03   -0.48509E-03  4077   0.450E-02    0.174E-01
RMM:   4    -0.233116296404E+04   -0.65467E-03   -0.24536E-03  4559   0.203E-02    0.297E-01
RMM:   5    -0.233116210711E+04    0.85693E-03   -0.60079E-04  3933   0.139E-02    0.548E-02
RMM:   6    -0.233116210141E+04    0.56956E-05   -0.14546E-04  3226   0.632E-03    0.504E-02
RMM:   7    -0.233116206269E+04    0.38724E-04   -0.44752E-05  2920   0.438E-03    0.139E-02
RMM:   8    -0.233116206000E+04    0.26866E-05   -0.96042E-06  2540   0.239E-03
  27 F= -.23525954E+04 E0= -.23525953E+04  d E =-.174148E-03  mag=     3.9986
       N       E                     dE             d eps       ncg     rms          rms(c)
DAV:   1    -0.233116679873E+04   -0.47360E-02   -0.65818E-01  4720   0.373E-01    0.382E-01
RMM:   2    -0.233116466397E+04    0.21348E-02   -0.85825E-03  3803   0.383E-02    0.198E-01
RMM:   3    -0.233116436206E+04    0.30191E-03   -0.15400E-03  3947   0.230E-02    0.979E-02
RMM:   4    -0.233116468368E+04   -0.32162E-03   -0.79542E-04  4278   0.123E-02    0.185E-01
RMM:   5    -0.233116429913E+04    0.38455E-03   -0.23161E-04  3202   0.811E-03    0.324E-02
RMM:   6    -0.233116429985E+04   -0.71761E-06   -0.52544E-05  2768   0.391E-03
  28 F= -.23525981E+04 E0= -.23525980E+04  d E =-.183313E-03  mag=     3.9985
       N       E                     dE             d eps       ncg     rms          rms(c)
DAV:   1    -0.233117005464E+04   -0.57555E-02   -0.12372E+00  4400   0.501E-01    0.317E-01
RMM:   2    -0.233117017084E+04   -0.11620E-03   -0.39793E-03  3556   0.297E-02    0.192E-01
RMM:   3    -0.233117075660E+04   -0.58576E-03   -0.15592E-03  4474   0.194E-02    0.243E-01
RMM:   4    -0.233117016556E+04    0.59103E-03   -0.54101E-04  3583   0.100E-02    0.265E-02
RMM:   5    -0.233117015970E+04    0.58628E-05   -0.67540E-05  2815   0.445E-03
  29 F= -.23526035E+04 E0= -.23526034E+04  d E =-.169743E-03  mag=     3.9986
       N       E                     dE             d eps       ncg     rms          rms(c)
DAV:   1    -0.233117436366E+04   -0.41981E-02   -0.61413E-01  4320   0.367E-01    0.229E-01
RMM:   2    -0.233117444475E+04   -0.81092E-04   -0.30224E-03  3537   0.228E-02    0.137E-01
RMM:   3    -0.233117460658E+04   -0.16182E-03   -0.88955E-04  4713   0.142E-02    0.144E-01
RMM:   4    -0.233117435026E+04    0.25631E-03   -0.24288E-04  3226   0.745E-03    0.212E-02
RMM:   5    -0.233117434814E+04    0.21267E-05   -0.34559E-05  2679   0.324E-03
  30 F= -.23526080E+04 E0= -.23526079E+04  d E =-.172125E-03  mag=     3.9986
       N       E                     dE             d eps       ncg     rms          rms(c)
DAV:   1    -0.233116046113E+04    0.13889E-01   -0.12073E+00  4400   0.515E-01    0.332E-01
RMM:   2    -0.233116065711E+04   -0.19598E-03   -0.61658E-03  3747   0.326E-02    0.200E-01
RMM:   3    -0.233116138047E+04   -0.72336E-03   -0.21055E-03  4814   0.241E-02    0.273E-01
RMM:   4    -0.233116048282E+04    0.89765E-03   -0.88342E-04  4004   0.129E-02    0.519E-02
RMM:   5    -0.233116048460E+04   -0.17776E-05   -0.14267E-04  2978   0.579E-03    0.556E-02
RMM:   6    -0.233116044953E+04    0.35061E-04   -0.34380E-05  2628   0.377E-03    0.112E-02
RMM:   7    -0.233116045060E+04   -0.10635E-05   -0.12117E-05  2478   0.205E-03
  31 F= -.23525940E+04 E0= -.23525939E+04  d E =-.185217E-03  mag=     3.9985
       N       E                     dE             d eps       ncg     rms          rms(c)
DAV:   1    -0.233116495954E+04   -0.45100E-02   -0.60007E-01  4560   0.391E-01    0.251E-01
RMM:   2    -0.233116500416E+04   -0.44620E-04   -0.30267E-03  4174   0.273E-02    0.169E-01
RMM:   3    -0.233116548785E+04   -0.48369E-03   -0.15627E-03  4703   0.188E-02    0.229E-01
RMM:   4    -0.233116483558E+04    0.65227E-03   -0.64409E-04  4315   0.138E-02    0.347E-02
RMM:   5    -0.233116485010E+04   -0.14515E-04   -0.80836E-05  2955   0.483E-03    0.557E-02
RMM:   6    -0.233116482142E+04    0.28671E-04   -0.25612E-05  2574   0.301E-03    0.884E-03
RMM:   7    -0.233116482001E+04    0.14100E-05   -0.44922E-06  2528   0.156E-03
  32 F= -.23525983E+04 E0= -.23525982E+04  d E =-.176607E-03  mag=     3.9985
       N       E                     dE             d eps       ncg     rms          rms(c)
DAV:   1    -0.233117228390E+04   -0.74625E-02   -0.11871E+00  4480   0.520E-01    0.376E-01
RMM:   2    -0.233117216632E+04    0.11757E-03   -0.47178E-03  4381   0.316E-02    0.264E-01
RMM:   3    -0.233117311508E+04   -0.94875E-03   -0.33941E-03  5392   0.269E-02    0.337E-01
RMM:   4    -0.233117176694E+04    0.13481E-02   -0.14049E-03  4892   0.200E-02    0.110E-01
RMM:   5    -0.233117175434E+04    0.12606E-04   -0.36409E-04  3112   0.787E-03    0.109E-01
RMM:   6    -0.233117164356E+04    0.11078E-03   -0.82722E-05  2893   0.526E-03    0.127E-02
RMM:   7    -0.233117164423E+04   -0.67422E-06   -0.17855E-05  2729   0.248E-03
  33 F= -.23526053E+04 E0= -.23526052E+04  d E =-.177147E-03  mag=     3.9985
       N       E                     dE             d eps       ncg     rms          rms(c)
DAV:   1    -0.233115730416E+04    0.14339E-01   -0.63302E-01  4720   0.380E-01    0.350E-01
RMM:   2    -0.233115628292E+04    0.10212E-02   -0.58428E-03  4300   0.342E-02    0.219E-01
RMM:   3    -0.233115658134E+04   -0.29841E-03   -0.20979E-03  5068   0.233E-02    0.252E-01
RMM:   4    -0.233115587211E+04    0.70922E-03   -0.10531E-03  4577   0.153E-02    0.107E-01
RMM:   5    -0.233115576914E+04    0.10297E-03   -0.22012E-04  3346   0.752E-03    0.650E-02
RMM:   6    -0.233115573583E+04    0.33317E-04   -0.60569E-05  2739   0.507E-03    0.250E-02
RMM:   7    -0.233115573421E+04    0.16169E-05   -0.13707E-05  2552   0.234E-03
  34 F= -.23525884E+04 E0= -.23525883E+04  d E =-.183933E-03  mag=     3.9985
       N       E                     dE             d eps       ncg     rms          rms(c)
DAV:   1    -0.233116700157E+04   -0.11266E-01   -0.13169E+00  4960   0.552E-01    0.615E-01
RMM:   2    -0.233116147812E+04    0.55234E-02   -0.24336E-02  4758   0.648E-02    0.340E-01
RMM:   3    -0.233116043973E+04    0.10384E-02   -0.40763E-03  4556   0.411E-02    0.262E-01
RMM:   4    -0.233116089055E+04   -0.45082E-03   -0.30565E-03  5193   0.229E-02    0.304E-01
RMM:   5    -0.233115964939E+04    0.12412E-02   -0.10220E-03  4478   0.155E-02    0.805E-02
RMM:   6    -0.233115964994E+04   -0.54459E-06   -0.23797E-04  3073   0.712E-03    0.815E-02
RMM:   7    -0.233115958552E+04    0.64422E-04   -0.54169E-05  2787   0.456E-03    0.157E-02
RMM:   8    -0.233115958545E+04    0.61002E-07   -0.14798E-05  2620   0.243E-03
  35 F= -.23525941E+04 E0= -.23525940E+04  d E =-.174832E-03  mag=     3.9986
       N       E                     dE             d eps       ncg     rms          rms(c)
DAV:   1    -0.233116230129E+04   -0.27158E-02   -0.67095E-01  4800   0.395E-01    0.445E-01
RMM:   2    -0.233115945006E+04    0.28512E-02   -0.13119E-02  4498   0.466E-02    0.243E-01
RMM:   3    -0.233115890362E+04    0.54644E-03   -0.19901E-03  4211   0.285E-02    0.209E-01
RMM:   4    -0.233115913197E+04   -0.22835E-03   -0.15585E-03  4773   0.161E-02    0.257E-01
RMM:   5    -0.233115853222E+04    0.59975E-03   -0.54975E-04  3982   0.112E-02    0.722E-02
RMM:   6    -0.233115848828E+04    0.43938E-04   -0.14974E-04  2979   0.676E-03    0.446E-02
RMM:   7    -0.233115846320E+04    0.25087E-04   -0.21389E-05  2652   0.347E-03    0.973E-03
RMM:   8    -0.233115846346E+04   -0.26388E-06   -0.72434E-06  2544   0.205E-03
  36 F= -.23525920E+04 E0= -.23525919E+04  d E =-.178599E-03  mag=     3.9985
       N       E                     dE             d eps       ncg     rms          rms(c)
DAV:   1    -0.233117352611E+04   -0.15063E-01   -0.12169E+00  4640   0.537E-01    0.445E-01
RMM:   2    -0.233117194516E+04    0.15809E-02   -0.95239E-03  4254   0.408E-02    0.269E-01
RMM:   3    -0.233117329813E+04   -0.13530E-02   -0.34993E-03  4602   0.308E-02    0.445E-01
RMM:   4    -0.233117137276E+04    0.19254E-02   -0.19874E-03  4987   0.192E-02    0.137E-01
RMM:   5    -0.233117130638E+04    0.66383E-04   -0.45780E-04  3979   0.994E-03    0.885E-02
RMM:   6    -0.233117122553E+04    0.80849E-04   -0.14878E-04  3035   0.688E-03    0.284E-02
RMM:   7    -0.233117121587E+04    0.96538E-05   -0.12488E-05  2755   0.299E-03
  37 F= -.23526048E+04 E0= -.23526047E+04  d E =-.173786E-03  mag=     3.9985
