       N       E                     dE             d eps       ncg     rms          rms(c)
DAV:   1     0.124064167973E+05    0.12406E+05   -0.84014E+05  4640   0.142E+03
DAV:   2    -0.126403118706E+04   -0.13670E+05   -0.13131E+05  5040   0.321E+02
DAV:   3    -0.250350277773E+04   -0.12395E+04   -0.12291E+04  5440   0.104E+02
DAV:   4    -0.253150883807E+04   -0.28006E+02   -0.27830E+02  5600   0.195E+01
DAV:   5    -0.253241844963E+04   -0.90961E+00   -0.90798E+00  5840   0.294E+00    0.171E+02
RMM:   6    -0.149235294481E+04    0.10401E+04   -0.19450E+03  4500   0.380E+01    0.738E+01
RMM:   7    -0.168183001359E+04   -0.18948E+03   -0.32013E+02  5105   0.148E+01    0.597E+01
RMM:   8    -0.169916926833E+04   -0.17339E+02   -0.84438E+01  5238   0.846E+00    0.422E+01
RMM:   9    -0.179631773317E+04   -0.97148E+02   -0.52424E+01  4906   0.734E+00    0.346E+01
RMM:  10    -0.192451357034E+04   -0.12820E+03   -0.53652E+01  5387   0.680E+00    0.230E+01
RMM:  11    -0.201575033171E+04   -0.91237E+02   -0.37857E+01  5191   0.510E+00    0.216E+01
RMM:  12    -0.208053720643E+04   -0.64787E+02   -0.24273E+01  5128   0.397E+00    0.139E+01
RMM:  13    -0.220246319475E+04   -0.12193E+03   -0.81992E+01  4539   0.665E+00    0.991E+00
RMM:  14    -0.229011038435E+04   -0.87647E+02   -0.78270E+01  4576   0.609E+00    0.627E+00
RMM:  15    -0.231424563953E+04   -0.24135E+02   -0.24200E+01  4777   0.413E+00    0.508E+00
RMM:  16    -0.231848972858E+04   -0.42441E+01   -0.61053E+00  5460   0.162E+00    0.448E+00
RMM:  17    -0.232043187901E+04   -0.19422E+01   -0.12301E+00  4885   0.698E-01    0.320E+00
RMM:  18    -0.232562357619E+04   -0.51917E+01   -0.39108E+00  4499   0.103E+00    0.151E+00
RMM:  19    -0.232699604740E+04   -0.13725E+01   -0.13959E+00  4561   0.645E-01    0.117E+00
RMM:  20    -0.232742668761E+04   -0.43064E+00   -0.52889E-01  4786   0.388E-01    0.785E-01
RMM:  21    -0.232769921232E+04   -0.27252E+00   -0.42449E-01  4618   0.304E-01    0.450E-01
RMM:  22    -0.232775048050E+04   -0.51268E-01   -0.85589E-02  4871   0.180E-01    0.329E-01
RMM:  23    -0.232777975126E+04   -0.29271E-01   -0.27955E-02  4706   0.782E-02    0.156E-01
RMM:  24    -0.232779951438E+04   -0.19763E-01   -0.90938E-03  4551   0.671E-02    0.954E-02
RMM:  25    -0.232781086000E+04   -0.11346E-01   -0.33825E-03  4721   0.391E-02    0.788E-02
RMM:  26    -0.232782019793E+04   -0.93379E-02   -0.23026E-03  4520   0.337E-02    0.411E-02
RMM:  27    -0.232782460213E+04   -0.44042E-02   -0.12007E-03  4344   0.252E-02    0.274E-02
RMM:  28    -0.232782643917E+04   -0.18370E-02   -0.50552E-04  4328   0.175E-02    0.175E-02
RMM:  29    -0.232782730790E+04   -0.86874E-03   -0.23842E-04  4002   0.105E-02    0.806E-03
RMM:  30    -0.232782751850E+04   -0.21059E-03   -0.62551E-05  3637   0.769E-03    0.535E-03
RMM:  31    -0.232782760461E+04   -0.86111E-04   -0.22722E-05  3161   0.391E-03    0.287E-03
RMM:  32    -0.232782763957E+04   -0.34966E-04   -0.80368E-06  2912   0.328E-03    0.170E-03
RMM:  33    -0.232782765303E+04   -0.13457E-04   -0.45535E-06  2762   0.228E-03    0.904E-04
RMM:  34    -0.232782765770E+04   -0.46671E-05   -0.23438E-06  2514   0.185E-03
   1 F= -.23488046E+04 E0= -.23488046E+04  d E =-.292009E-15  mag=     5.0000
       N       E                     dE             d eps       ncg     rms          rms(c)
DAV:   1    -0.232782895764E+04   -0.13046E-02   -0.20988E+00  4480   0.688E-01    0.302E-01
RMM:   2    -0.232782833131E+04    0.62633E-03   -0.90434E-03  3841   0.393E-02    0.165E-01
RMM:   3    -0.232782851371E+04   -0.18240E-03   -0.22852E-03  4794   0.221E-02    0.262E-01
RMM:   4    -0.232782786406E+04    0.64965E-03   -0.66926E-04  3994   0.113E-02    0.462E-02
RMM:   5    -0.232782788030E+04   -0.16235E-04   -0.13648E-04  3231   0.505E-03    0.390E-02
RMM:   6    -0.232782786997E+04    0.10333E-04   -0.36494E-05  2634   0.376E-03    0.227E-02
RMM:   7    -0.232782786402E+04    0.59507E-05   -0.11737E-05  2724   0.213E-03
   2 F= -.23488049E+04 E0= -.23488049E+04  d E =-.605948E-14  mag=     5.0000
       N       E                     dE             d eps       ncg     rms          rms(c)
DAV:   1    -0.232779663679E+04    0.31233E-01   -0.83119E+00  4480   0.134E+00    0.592E-01
RMM:   2    -0.232779420818E+04    0.24286E-02   -0.32957E-02  4025   0.801E-02    0.324E-01
RMM:   3    -0.232779424498E+04   -0.36804E-04   -0.86077E-03  5194   0.464E-02    0.463E-01
RMM:   4    -0.232779221833E+04    0.20267E-02   -0.23661E-03  4843   0.210E-02    0.923E-02
RMM:   5    -0.232779227691E+04   -0.58584E-04   -0.41491E-04  3807   0.821E-03    0.690E-02
RMM:   6    -0.232779225201E+04    0.24907E-04   -0.12830E-04  2938   0.606E-03    0.478E-02
RMM:   7    -0.232779222779E+04    0.24219E-04   -0.51533E-05  3185   0.382E-03    0.131E-02
RMM:   8    -0.232779222874E+04   -0.95551E-06   -0.70269E-06  2730   0.263E-03
   3 F= -.23487691E+04 E0= -.23487691E+04  d E =-.307140E-14  mag=     5.0000
       N       E                     dE             d eps       ncg     rms          rms(c)
DAV:   1    -0.232777779376E+04    0.14434E-01   -0.42170E+00  4480   0.106E+00    0.418E-01
RMM:   2    -0.232777667020E+04    0.11236E-02   -0.15713E-02  3941   0.524E-02    0.231E-01
RMM:   3    -0.232777653727E+04    0.13293E-03   -0.38487E-03  4990   0.298E-02    0.299E-01
RMM:   4    -0.232777583259E+04    0.70468E-03   -0.17461E-03  4731   0.165E-02    0.112E-01
RMM:   5    -0.232777575067E+04    0.81918E-04   -0.16944E-04  3447   0.662E-03    0.448E-02
RMM:   6    -0.232777573696E+04    0.13716E-04   -0.51411E-05  2723   0.397E-03    0.278E-02
RMM:   7    -0.232777572541E+04    0.11554E-04   -0.22967E-05  2920   0.264E-03    0.113E-02
RMM:   8    -0.232777572451E+04    0.89947E-06   -0.69815E-06  2677   0.217E-03
   4 F= -.23487526E+04 E0= -.23487526E+04  d E =-.999838E-16  mag=     5.0000
       N       E                     dE             d eps       ncg     rms          rms(c)
DAV:   1    -0.232785773855E+04   -0.82013E-01   -0.82141E+00  4480   0.141E+00    0.578E-01
RMM:   2    -0.232785579377E+04    0.19448E-02   -0.28590E-02  4127   0.724E-02    0.350E-01
RMM:   3    -0.232785729978E+04   -0.15060E-02   -0.81305E-03  5391   0.430E-02    0.592E-01
RMM:   4    -0.232785402823E+04    0.32715E-02   -0.39136E-03  5040   0.254E-02    0.109E-01
RMM:   5    -0.232785403858E+04   -0.10345E-04   -0.64702E-04  3992   0.967E-03    0.438E-02
RMM:   6    -0.232785403026E+04    0.83203E-05   -0.84364E-05  2981   0.565E-03
   5 F= -.23488311E+04 E0= -.23488311E+04  d E =-.131447E-15  mag=     5.0000
       N       E                     dE             d eps       ncg     rms          rms(c)
DAV:   1    -0.232780384864E+04    0.50190E-01   -0.42000E+00  4480   0.100E+00    0.399E-01
RMM:   2    -0.232780277105E+04    0.10776E-02   -0.14301E-02  3960   0.525E-02    0.244E-01
RMM:   3    -0.232780313129E+04   -0.36024E-03   -0.39008E-03  4901   0.295E-02    0.380E-01
RMM:   4    -0.232780184394E+04    0.12874E-02   -0.22761E-03  4945   0.196E-02    0.907E-02
RMM:   5    -0.232780186647E+04   -0.22530E-04   -0.30402E-04  3392   0.804E-03    0.847E-02
RMM:   6    -0.232780179601E+04    0.70454E-04   -0.91504E-05  2820   0.486E-03    0.218E-02
RMM:   7    -0.232780178869E+04    0.73205E-05   -0.26675E-05  2907   0.280E-03
   6 F= -.23487793E+04 E0= -.23487793E+04  d E =-.118992E-14  mag=     5.0000
       N       E                     dE             d eps       ncg     rms          rms(c)
DAV:   1    -0.232783911653E+04   -0.37321E-01   -0.80486E+00  4480   0.132E+00    0.545E-01
RMM:   2    -0.232783738680E+04    0.17297E-02   -0.30709E-02  4247   0.756E-02    0.350E-01
RMM:   3    -0.232783806307E+04   -0.67628E-03   -0.75528E-03  4845   0.423E-02    0.513E-01
RMM:   4    -0.232783547248E+04    0.25906E-02   -0.34907E-03  4829   0.247E-02    0.854E-02
RMM:   5    -0.232783548684E+04   -0.14358E-04   -0.57999E-04  3727   0.122E-02    0.656E-02
RMM:   6    -0.232783547958E+04    0.72617E-05   -0.14326E-04  3196   0.613E-03    0.608E-02
RMM:   7    -0.232783544313E+04    0.36448E-04   -0.49354E-05  3084   0.452E-03    0.208E-02
RMM:   8    -0.232783544266E+04    0.46798E-06   -0.11656E-05  2863   0.287E-03
   7 F= -.23488118E+04 E0= -.23488118E+04  d E =-.303071E-17  mag=     5.0000
       N       E                     dE             d eps       ncg     rms          rms(c)
DAV:   1    -0.232781812225E+04    0.17321E-01   -0.41608E+00  4640   0.104E+00    0.405E-01
RMM:   2    -0.232781678277E+04    0.13395E-02   -0.16470E-02  3948   0.594E-02    0.284E-01
RMM:   3    -0.232781718165E+04   -0.39887E-03   -0.40939E-03  5029   0.295E-02    0.406E-01
RMM:   4    -0.232781568951E+04    0.14921E-02   -0.32466E-03  4727   0.221E-02    0.114E-01
RMM:   5    -0.232781560727E+04    0.82238E-04   -0.31105E-04  3389   0.119E-02    0.772E-02
RMM:   6    -0.232781554649E+04    0.60774E-04   -0.74926E-05  2869   0.453E-03    0.192E-02
RMM:   7    -0.232781554262E+04    0.38731E-05   -0.26824E-05  2902   0.281E-03
   8 F= -.23487919E+04 E0= -.23487919E+04  d E =-.656582E-17  mag=     5.0000
       N       E                     dE             d eps       ncg     rms          rms(c)
DAV:   1    -0.232781265594E+04    0.28906E-02   -0.86377E+00  4480   0.146E+00    0.639E-01
RMM:   2    -0.232780628546E+04    0.63705E-02   -0.34210E-02  4102   0.881E-02    0.465E-01
RMM:   3    -0.232780801208E+04   -0.17266E-02   -0.12738E-02  5474   0.552E-02    0.716E-01
RMM:   4    -0.232780286491E+04    0.51472E-02   -0.74941E-03  4806   0.342E-02    0.774E-02
RMM:   5    -0.232780287051E+04   -0.56000E-05   -0.81545E-04  3791   0.184E-02    0.888E-02
RMM:   6    -0.232780281072E+04    0.59789E-04   -0.18022E-04  3233   0.608E-03    0.393E-02
RMM:   7    -0.232780278811E+04    0.22608E-04   -0.38611E-05  2976   0.351E-03    0.161E-02
RMM:   8    -0.232780278683E+04    0.12870E-05   -0.17594E-05  2894   0.304E-03
   9 F= -.23487803E+04 E0= -.23487803E+04  d E =-.286852E-15  mag=     5.0000
       N       E                     dE             d eps       ncg     rms          rms(c)
DAV:   1    -0.232782403097E+04   -0.21243E-01   -0.43263E+00  4320   0.104E+00    0.430E-01
RMM:   2    -0.232782141559E+04    0.26154E-02   -0.14226E-02  3858   0.541E-02    0.279E-01
RMM:   3    -0.232782239432E+04   -0.97872E-03   -0.59192E-03  5196   0.324E-02    0.494E-01
RMM:   4    -0.232782003066E+04    0.23637E-02   -0.31867E-03  4949   0.227E-02    0.528E-02
RMM:   5    -0.232782003726E+04   -0.65926E-05   -0.20041E-04  3160   0.743E-03    0.461E-02
RMM:   6    -0.232782001746E+04    0.19792E-04   -0.45837E-05  2670   0.336E-03    0.245E-02
RMM:   7    -0.232782001058E+04    0.68796E-05   -0.30674E-05  2840   0.277E-03
  10 F= -.23487973E+04 E0= -.23487973E+04  d E =-.113175E-15  mag=     5.0000
       N       E                     dE             d eps       ncg     rms          rms(c)
DAV:   1    -0.232780700468E+04    0.13013E-01   -0.86168E+00  4480   0.146E+00    0.643E-01
RMM:   2    -0.232780094817E+04    0.60565E-02   -0.32803E-02  4014   0.854E-02    0.372E-01
RMM:   3    -0.232780076244E+04    0.18572E-03   -0.11928E-02  5345   0.489E-02    0.516E-01
RMM:   4    -0.232779823568E+04    0.25268E-02   -0.50332E-03  4972   0.266E-02    0.126E-01
RMM:   5    -0.232779814084E+04    0.94837E-04   -0.47110E-04  3589   0.955E-03    0.697E-02
RMM:   6    -0.232779810268E+04    0.38164E-04   -0.94321E-05  2977   0.505E-03    0.415E-02
RMM:   7    -0.232779807897E+04    0.23711E-04   -0.59064E-05  3087   0.381E-03    0.159E-02
RMM:   8    -0.232779807787E+04    0.10903E-05   -0.17463E-05  2875   0.327E-03
  11 F= -.23487747E+04 E0= -.23487747E+04  d E =-.135391E-16  mag=     5.0000
       N       E                     dE             d eps       ncg     rms          rms(c)
DAV:   1    -0.232779335343E+04    0.47255E-02   -0.43191E+00  4320   0.106E+00    0.432E-01
RMM:   2    -0.232779076730E+04    0.25861E-02   -0.13507E-02  3832   0.550E-02    0.274E-01
RMM:   3    -0.232779169111E+04   -0.92381E-03   -0.58364E-03  5220   0.323E-02    0.476E-01
RMM:   4    -0.232778948112E+04    0.22100E-02   -0.32781E-03  5008   0.229E-02    0.675E-02
RMM:   5    -0.232778948913E+04   -0.80141E-05   -0.29155E-04  3299   0.753E-03    0.640E-02
RMM:   6    -0.232778945040E+04    0.38725E-04   -0.66227E-05  2660   0.398E-03    0.231E-02
RMM:   7    -0.232778944285E+04    0.75578E-05   -0.41227E-05  2904   0.299E-03
  12 F= -.23487664E+04 E0= -.23487664E+04  d E =-.799442E-16  mag=     5.0000
       N       E                     dE             d eps       ncg     rms          rms(c)
DAV:   1    -0.232784819134E+04   -0.58741E-01   -0.84503E+00  4480   0.132E+00    0.527E-01
RMM:   2    -0.232784475335E+04    0.34380E-02   -0.28000E-02  4070   0.740E-02    0.373E-01
RMM:   3    -0.232784555686E+04   -0.80351E-03   -0.73448E-03  5328   0.385E-02    0.563E-01
RMM:   4    -0.232784234693E+04    0.32099E-02   -0.46782E-03  4980   0.279E-02    0.897E-02
RMM:   5    -0.232784232147E+04    0.25464E-04   -0.43713E-04  3682   0.121E-02    0.584E-02
RMM:   6    -0.232784230481E+04    0.16663E-04   -0.10137E-04  2956   0.509E-03    0.411E-02
RMM:   7    -0.232784228999E+04    0.14813E-04   -0.30145E-05  2845   0.347E-03    0.150E-02
RMM:   8    -0.232784228887E+04    0.11201E-05   -0.89273E-06  2730   0.250E-03
  13 F= -.23488192E+04 E0= -.23488192E+04  d E =-.261220E-16  mag=     5.0000
       N       E                     dE             d eps       ncg     rms          rms(c)
DAV:   1    -0.232782467703E+04    0.17613E-01   -0.24339E+00  4320   0.716E-01    0.299E-01
RMM:   2    -0.232782404192E+04    0.63512E-03   -0.81625E-03  3736   0.429E-02    0.202E-01
RMM:   3    -0.232782447880E+04   -0.43688E-03   -0.22993E-03  4782   0.221E-02    0.330E-01
RMM:   4    -0.232782346821E+04    0.10106E-02   -0.15544E-03  4679   0.165E-02    0.502E-02
RMM:   5    -0.232782345882E+04    0.93877E-05   -0.11884E-04  3073   0.669E-03    0.328E-02
RMM:   6    -0.232782345079E+04    0.80296E-05   -0.27894E-05  2618   0.298E-03
  14 F= -.23488001E+04 E0= -.23488001E+04  d E =-.387898E-16  mag=     5.0000
       N       E                     dE             d eps       ncg     rms          rms(c)
DAV:   1    -0.232782801382E+04   -0.45550E-02   -0.12274E+00  4320   0.523E-01    0.312E-01
RMM:   2    -0.232782818373E+04   -0.16991E-03   -0.51742E-03  3635   0.310E-02    0.192E-01
RMM:   3    -0.232782899706E+04   -0.81333E-03   -0.19273E-03  4863   0.197E-02    0.315E-01
RMM:   4    -0.232782807091E+04    0.92616E-03   -0.78039E-04  4120   0.123E-02    0.195E-02
RMM:   5    -0.232782806514E+04    0.57668E-05   -0.70905E-05  2862   0.387E-03
  15 F= -.23488053E+04 E0= -.23488053E+04  d E =-.354934E-16  mag=     5.0000
       N       E                     dE             d eps       ncg     rms          rms(c)
DAV:   1    -0.232783384479E+04   -0.57739E-02   -0.63470E-01  4640   0.380E-01    0.329E-01
RMM:   2    -0.232783246993E+04    0.13749E-02   -0.60103E-03  3741   0.319E-02    0.173E-01
RMM:   3    -0.232783226918E+04    0.20075E-03   -0.10999E-03  4034   0.172E-02    0.883E-02
RMM:   4    -0.232783239673E+04   -0.12755E-03   -0.45080E-04  3702   0.887E-03    0.134E-01
RMM:   5    -0.232783222278E+04    0.17395E-03   -0.15501E-04  2993   0.637E-03    0.248E-02
RMM:   6    -0.232783222504E+04   -0.22572E-05   -0.29145E-05  2604   0.310E-03
  16 F= -.23488091E+04 E0= -.23488091E+04  d E =-.348948E-16  mag=     5.0000
       N       E                     dE             d eps       ncg     rms          rms(c)
DAV:   1    -0.232781169145E+04    0.20531E-01   -0.12847E+00  4720   0.543E-01    0.533E-01
RMM:   2    -0.232780726981E+04    0.44216E-02   -0.18736E-02  3891   0.539E-02    0.281E-01
RMM:   3    -0.232780732438E+04   -0.54565E-04   -0.39553E-03  4364   0.316E-02    0.317E-01
RMM:   4    -0.232780655316E+04    0.77122E-03   -0.17298E-03  4400   0.174E-02    0.142E-01
RMM:   5    -0.232780639878E+04    0.15438E-03   -0.28150E-04  3584   0.821E-03    0.483E-02
RMM:   6    -0.232780642243E+04   -0.23648E-04   -0.11295E-04  2900   0.566E-03    0.670E-02
RMM:   7    -0.232780637893E+04    0.43495E-04   -0.33410E-05  2667   0.360E-03    0.959E-03
RMM:   8    -0.232780637732E+04    0.16142E-05   -0.86849E-06  2460   0.187E-03
  17 F= -.23487835E+04 E0= -.23487835E+04  d E =-.485951E-16  mag=     5.0000
       N       E                     dE             d eps       ncg     rms          rms(c)
DAV:   1    -0.232783004516E+04   -0.23666E-01   -0.66440E-01  4800   0.396E-01    0.442E-01
RMM:   2    -0.232782671072E+04    0.33344E-02   -0.12791E-02  3801   0.474E-02    0.226E-01
RMM:   3    -0.232782662530E+04    0.85420E-04   -0.26105E-03  4092   0.275E-02    0.237E-01
RMM:   4    -0.232782624038E+04    0.38492E-03   -0.11607E-03  4275   0.147E-02    0.123E-01
RMM:   5    -0.232782611476E+04    0.12562E-03   -0.19953E-04  3375   0.712E-03    0.524E-02
RMM:   6    -0.232782611277E+04    0.19867E-05   -0.90427E-05  2769   0.494E-03
  18 F= -.23488026E+04 E0= -.23488026E+04  d E =-.309783E-16  mag=     5.0000
       N       E                     dE             d eps       ncg     rms          rms(c)
DAV:   1    -0.232782015589E+04    0.59589E-02   -0.12553E+00  4560   0.541E-01    0.472E-01
RMM:   2    -0.232781764286E+04    0.25130E-02   -0.13493E-02  3793   0.471E-02    0.252E-01
RMM:   3    -0.232781750140E+04    0.14145E-03   -0.26006E-03  4770   0.248E-02    0.237E-01
RMM:   4    -0.232781720241E+04    0.29899E-03   -0.11066E-03  4318   0.146E-02    0.143E-01
RMM:   5    -0.232781703325E+04    0.16915E-03   -0.19857E-04  3448   0.731E-03    0.402E-02
RMM:   6    -0.232781703600E+04   -0.27498E-05   -0.61333E-05  2728   0.441E-03
  19 F= -.23487944E+04 E0= -.23487944E+04  d E =-.374139E-16  mag=     5.0000
       N       E                     dE             d eps       ncg     rms          rms(c)
DAV:   1    -0.232780960917E+04    0.74241E-02   -0.63279E-01  4960   0.408E-01    0.376E-01
RMM:   2    -0.232780758877E+04    0.20204E-02   -0.88476E-03  4011   0.401E-02    0.195E-01
RMM:   3    -0.232780738094E+04    0.20782E-03   -0.13338E-03  4227   0.206E-02    0.168E-01
RMM:   4    -0.232780726630E+04    0.11464E-03   -0.82641E-04  3866   0.113E-02    0.129E-01
RMM:   5    -0.232780711185E+04    0.15445E-03   -0.15719E-04  3261   0.668E-03    0.196E-02
RMM:   6    -0.232780711180E+04    0.52285E-07   -0.21330E-05  2628   0.340E-03
  20 F= -.23487847E+04 E0= -.23487847E+04  d E =-.640267E-16  mag=     5.0000
       N       E                     dE             d eps       ncg     rms          rms(c)
DAV:   1    -0.232783531384E+04   -0.28202E-01   -0.13007E+00  4960   0.536E-01    0.617E-01
RMM:   2    -0.232782929946E+04    0.60144E-02   -0.23382E-02  4500   0.582E-02    0.321E-01
RMM:   3    -0.232782888326E+04    0.41619E-03   -0.41438E-03  4037   0.356E-02    0.333E-01
RMM:   4    -0.232782819764E+04    0.68562E-03   -0.25180E-03  4598   0.203E-02    0.208E-01
RMM:   5    -0.232782777250E+04    0.42515E-03   -0.50478E-04  4159   0.109E-02    0.337E-02
RMM:   6    -0.232782778218E+04   -0.96868E-05   -0.76464E-05  2893   0.526E-03
  21 F= -.23488041E+04 E0= -.23488041E+04  d E =-.202059E-16  mag=     5.0000
       N       E                     dE             d eps       ncg     rms          rms(c)
DAV:   1    -0.232783875418E+04   -0.10982E-01   -0.65821E-01  4960   0.377E-01    0.453E-01
RMM:   2    -0.232783543991E+04    0.33143E-02   -0.13545E-02  4461   0.443E-02    0.244E-01
RMM:   3    -0.232783547308E+04   -0.33167E-04   -0.27007E-03  4072   0.255E-02    0.304E-01
RMM:   4    -0.232783470785E+04    0.76523E-03   -0.14746E-03  4162   0.156E-02    0.134E-01
RMM:   5    -0.232783457072E+04    0.13713E-03   -0.30691E-04  3927   0.839E-03    0.753E-02
RMM:   6    -0.232783453808E+04    0.32636E-04   -0.11933E-04  2945   0.590E-03    0.459E-02
RMM:   7    -0.232783451868E+04    0.19402E-04   -0.16977E-05  2618   0.299E-03    0.809E-03
RMM:   8    -0.232783451782E+04    0.85740E-06   -0.55447E-06  2524   0.169E-03
  22 F= -.23488115E+04 E0= -.23488115E+04  d E =-.426538E-16  mag=     5.0000
       N       E                     dE             d eps       ncg     rms          rms(c)
DAV:   1    -0.232781406699E+04    0.20452E-01   -0.12365E+00  4640   0.504E-01    0.407E-01
RMM:   2    -0.232781289499E+04    0.11720E-02   -0.82834E-03  4269   0.358E-02    0.239E-01
RMM:   3    -0.232781338486E+04   -0.48987E-03   -0.24256E-03  4385   0.233E-02    0.319E-01
RMM:   4    -0.232781247025E+04    0.91461E-03   -0.12461E-03  4032   0.144E-02    0.982E-02
RMM:   5    -0.232781243382E+04    0.36432E-04   -0.19557E-04  3679   0.722E-03    0.584E-02
RMM:   6    -0.232781241302E+04    0.20795E-04   -0.64899E-05  2842   0.483E-03    0.319E-02
RMM:   7    -0.232781240416E+04    0.88615E-05   -0.94907E-06  2589   0.244E-03
  23 F= -.23487893E+04 E0= -.23487893E+04  d E =-.296547E-16  mag=     5.0000
       N       E                     dE             d eps       ncg     rms          rms(c)
DAV:   1    -0.232783170526E+04   -0.19292E-01   -0.62153E-01  4480   0.359E-01    0.262E-01
RMM:   2    -0.232783145203E+04    0.25323E-03   -0.34399E-03  4177   0.244E-02    0.167E-01
RMM:   3    -0.232783178605E+04   -0.33403E-03   -0.12623E-03  3912   0.163E-02    0.242E-01
RMM:   4    -0.232783127225E+04    0.51381E-03   -0.55504E-04  3607   0.106E-02    0.576E-02
RMM:   5    -0.232783128499E+04   -0.12743E-04   -0.10300E-04  3215   0.538E-03    0.458E-02
RMM:   6    -0.232783126649E+04    0.18501E-04   -0.30669E-05  2606   0.357E-03    0.147E-02
RMM:   7    -0.232783126452E+04    0.19665E-05   -0.41690E-06  2334   0.166E-03
  24 F= -.23488086E+04 E0= -.23488086E+04  d E =-.155734E-16  mag=     5.0000
       N       E                     dE             d eps       ncg     rms          rms(c)
DAV:   1    -0.232782138935E+04    0.98771E-02   -0.12203E+00  4480   0.503E-01    0.347E-01
RMM:   2    -0.232782132519E+04    0.64163E-04   -0.49484E-03  3912   0.307E-02    0.222E-01
RMM:   3    -0.232782255219E+04   -0.12270E-02   -0.28001E-03  4928   0.226E-02    0.405E-01
RMM:   4    -0.232782107763E+04    0.14746E-02   -0.11055E-03  4440   0.154E-02    0.506E-02
RMM:   5    -0.232782109078E+04   -0.13158E-04   -0.17856E-04  3051   0.551E-03    0.614E-02
RMM:   6    -0.232782105397E+04    0.36814E-04   -0.44724E-05  2712   0.348E-03    0.113E-02
RMM:   7    -0.232782105311E+04    0.86287E-06   -0.12302E-05  2664   0.201E-03
  25 F= -.23487976E+04 E0= -.23487976E+04  d E =-.717206E-16  mag=     5.0000
       N       E                     dE             d eps       ncg     rms          rms(c)
DAV:   1    -0.232779868771E+04    0.22366E-01   -0.62605E-01  4800   0.394E-01    0.335E-01
RMM:   2    -0.232779740932E+04    0.12784E-02   -0.72887E-03  3824   0.371E-02    0.193E-01
RMM:   3    -0.232779781871E+04   -0.40939E-03   -0.20014E-03  4572   0.207E-02    0.293E-01
RMM:   4    -0.232779706138E+04    0.75733E-03   -0.84936E-04  4072   0.131E-02    0.744E-02
RMM:   5    -0.232779707200E+04   -0.10624E-04   -0.17382E-04  3187   0.593E-03    0.715E-02
RMM:   6    -0.232779702723E+04    0.44779E-04   -0.84020E-05  2743   0.465E-03    0.293E-02
RMM:   7    -0.232779701899E+04    0.82360E-05   -0.85123E-06  2484   0.225E-03
  26 F= -.23487743E+04 E0= -.23487743E+04  d E =-.398465E-16  mag=     5.0000
       N       E                     dE             d eps       ncg     rms          rms(c)
DAV:   1    -0.232784252770E+04   -0.45500E-01   -0.13159E+00  4960   0.541E-01    0.584E-01
RMM:   2    -0.232783694886E+04    0.55788E-02   -0.21367E-02  3932   0.606E-02    0.301E-01
RMM:   3    -0.232783667378E+04    0.27508E-03   -0.43027E-03  4233   0.353E-02    0.282E-01
RMM:   4    -0.232783621904E+04    0.45474E-03   -0.19829E-03  4521   0.189E-02    0.173E-01
RMM:   5    -0.232783594237E+04    0.27667E-03   -0.33951E-04  3737   0.908E-03    0.511E-02
RMM:   6    -0.232783596580E+04   -0.23432E-04   -0.12751E-04  3001   0.574E-03    0.706E-02
RMM:   7    -0.232783591682E+04    0.48981E-04   -0.39531E-05  2753   0.386E-03    0.988E-03
RMM:   8    -0.232783591564E+04    0.11850E-05   -0.10092E-05  2545   0.206E-03
  27 F= -.23488126E+04 E0= -.23488126E+04  d E =-.254310E-16  mag=     5.0000
       N       E                     dE             d eps       ncg     rms          rms(c)
DAV:   1    -0.232782160219E+04    0.14315E-01   -0.65878E-01  4800   0.389E-01    0.430E-01
RMM:   2    -0.232781846478E+04    0.31374E-02   -0.11799E-02  3834   0.441E-02    0.218E-01
RMM:   3    -0.232781830871E+04    0.15607E-03   -0.22568E-03  4282   0.235E-02    0.212E-01
RMM:   4    -0.232781805633E+04    0.25238E-03   -0.99064E-04  4174   0.138E-02    0.135E-01
RMM:   5    -0.232781791003E+04    0.14630E-03   -0.20818E-04  3372   0.715E-03    0.523E-02
RMM:   6    -0.232781790482E+04    0.52123E-05   -0.84384E-05  2740   0.473E-03
  28 F= -.23487953E+04 E0= -.23487953E+04  d E =-.251813E-16  mag=     5.0000
       N       E                     dE             d eps       ncg     rms          rms(c)
DAV:   1    -0.232783185034E+04   -0.13940E-01   -0.12433E+00  4560   0.515E-01    0.378E-01
RMM:   2    -0.232783070329E+04    0.11471E-02   -0.64057E-03  3747   0.333E-02    0.210E-01
RMM:   3    -0.232783069758E+04    0.57105E-05   -0.16596E-03  4400   0.191E-02    0.160E-01
RMM:   4    -0.232783063689E+04    0.60687E-04   -0.70054E-04  4009   0.119E-02    0.129E-01
RMM:   5    -0.232783049302E+04    0.14387E-03   -0.12359E-04  3094   0.616E-03    0.182E-02
RMM:   6    -0.232783049363E+04   -0.61122E-06   -0.20325E-05  2579   0.296E-03
  29 F= -.23488070E+04 E0= -.23488070E+04  d E =-.390500E-16  mag=     5.0000
       N       E                     dE             d eps       ncg     rms          rms(c)
DAV:   1    -0.232782637995E+04    0.41131E-02   -0.61629E-01  4320   0.371E-01    0.247E-01
RMM:   2    -0.232782620099E+04    0.17896E-03   -0.33699E-03  3533   0.227E-02    0.146E-01
RMM:   3    -0.232782643667E+04   -0.23569E-03   -0.10492E-03  4476   0.138E-02    0.198E-01
RMM:   4    -0.232782606054E+04    0.37613E-03   -0.40741E-04  3362   0.835E-03    0.373E-02
RMM:   5    -0.232782606623E+04   -0.56883E-05   -0.64234E-05  2785   0.432E-03
  30 F= -.23488030E+04 E0= -.23488030E+04  d E =-.341414E-16  mag=     5.0000
       N       E                     dE             d eps       ncg     rms          rms(c)
DAV:   1    -0.232782578635E+04    0.27419E-03   -0.12145E+00  4480   0.513E-01    0.313E-01
RMM:   2    -0.232782612894E+04   -0.34258E-03   -0.55385E-03  3591   0.304E-02    0.207E-01
RMM:   3    -0.232782729263E+04   -0.11637E-02   -0.24242E-03  5066   0.189E-02    0.391E-01
RMM:   4    -0.232782589456E+04    0.13981E-02   -0.10525E-03  4468   0.147E-02    0.255E-02
RMM:   5    -0.232782589024E+04    0.43240E-05   -0.11742E-04  2908   0.418E-03    0.260E-02
RMM:   6    -0.232782588414E+04    0.60952E-05   -0.13007E-05  2494   0.225E-03
  31 F= -.23488029E+04 E0= -.23488029E+04  d E =-.462526E-16  mag=     5.0000
       N       E                     dE             d eps       ncg     rms          rms(c)
DAV:   1    -0.232782066880E+04    0.52214E-02   -0.62616E-01  4960   0.392E-01    0.303E-01
RMM:   2    -0.232781976243E+04    0.90637E-03   -0.56853E-03  3894   0.313E-02    0.164E-01
RMM:   3    -0.232781969204E+04    0.70383E-04   -0.93264E-04  4036   0.178E-02    0.144E-01
RMM:   4    -0.232781962634E+04    0.65706E-04   -0.48395E-04  3686   0.976E-03    0.105E-01
RMM:   5    -0.232781953093E+04    0.95408E-04   -0.82935E-05  3126   0.543E-03    0.143E-02
RMM:   6    -0.232781953119E+04   -0.25763E-06   -0.10684E-05  2588   0.257E-03
  32 F= -.23487961E+04 E0= -.23487961E+04  d E =-.418347E-16  mag=     5.0000
       N       E                     dE             d eps       ncg     rms          rms(c)
DAV:   1    -0.232782823395E+04   -0.87030E-02   -0.12600E+00  4960   0.503E-01    0.513E-01
RMM:   2    -0.232782408194E+04    0.41520E-02   -0.16333E-02  4068   0.469E-02    0.260E-01
RMM:   3    -0.232782383511E+04    0.24684E-03   -0.25694E-03  4066   0.284E-02    0.240E-01
RMM:   4    -0.232782359608E+04    0.23902E-03   -0.14608E-03  4212   0.159E-02    0.166E-01
RMM:   5    -0.232782336906E+04    0.22702E-03   -0.30627E-04  3870   0.858E-03    0.541E-02
RMM:   6    -0.232782337658E+04   -0.75234E-05   -0.10686E-04  2885   0.519E-03    0.596E-02
RMM:   7    -0.232782334113E+04    0.35455E-04   -0.26380E-05  2644   0.335E-03    0.857E-03
RMM:   8    -0.232782334009E+04    0.10379E-05   -0.80909E-06  2519   0.181E-03
  33 F= -.23488007E+04 E0= -.23488007E+04  d E =-.271433E-16  mag=     5.0000
       N       E                     dE             d eps       ncg     rms          rms(c)
DAV:   1    -0.232782446963E+04   -0.11285E-02   -0.60935E-01  4480   0.342E-01    0.213E-01
RMM:   2    -0.232782452845E+04   -0.58824E-04   -0.19832E-03  3479   0.190E-02    0.129E-01
RMM:   3    -0.232782479480E+04   -0.26635E-03   -0.76697E-04  4346   0.118E-02    0.182E-01
RMM:   4    -0.232782448532E+04    0.30948E-03   -0.27667E-04  3237   0.769E-03    0.171E-02
RMM:   5    -0.232782448549E+04   -0.16885E-06   -0.37561E-05  2603   0.289E-03
  34 F= -.23488016E+04 E0= -.23488016E+04  d E =-.519842E-16  mag=     5.0000
       N       E                     dE             d eps       ncg     rms          rms(c)
DAV:   1    -0.232781995605E+04    0.45293E-02   -0.12972E+00  4960   0.500E-01    0.529E-01
RMM:   2    -0.232781580459E+04    0.41515E-02   -0.15330E-02  3954   0.501E-02    0.284E-01
RMM:   3    -0.232781661973E+04   -0.81514E-03   -0.45091E-03  4845   0.329E-02    0.425E-01
RMM:   4    -0.232781505594E+04    0.15638E-02   -0.19430E-03  4571   0.191E-02    0.106E-01
RMM:   5    -0.232781507611E+04   -0.20173E-04   -0.40579E-04  3620   0.836E-03    0.110E-01
RMM:   6    -0.232781496235E+04    0.11376E-03   -0.17116E-04  3004   0.637E-03    0.363E-02
RMM:   7    -0.232781495096E+04    0.11391E-04   -0.17394E-05  2695   0.297E-03    0.985E-03
RMM:   8    -0.232781495008E+04    0.88238E-06   -0.81611E-06  2605   0.201E-03
  35 F= -.23487917E+04 E0= -.23487917E+04  d E =-.231992E-16  mag=     5.0000
       N       E                     dE             d eps       ncg     rms          rms(c)
DAV:   1    -0.232781479006E+04    0.16090E-03   -0.62723E-01  4720   0.348E-01    0.296E-01
RMM:   2    -0.232781387974E+04    0.91032E-03   -0.48308E-03  3909   0.266E-02    0.158E-01
RMM:   3    -0.232781376532E+04    0.11443E-03   -0.69548E-04  4088   0.138E-02    0.113E-01
RMM:   4    -0.232781382949E+04   -0.64171E-04   -0.42850E-04  3606   0.920E-03    0.130E-01
RMM:   5    -0.232781368525E+04    0.14423E-03   -0.13218E-04  3341   0.625E-03    0.180E-02
RMM:   6    -0.232781368671E+04   -0.14535E-05   -0.17791E-05  2607   0.275E-03
  36 F= -.23487908E+04 E0= -.23487908E+04  d E =-.178310E-16  mag=     5.0000
       N       E                     dE             d eps       ncg     rms          rms(c)
DAV:   1    -0.232783818262E+04   -0.24497E-01   -0.12228E+00  4560   0.495E-01    0.342E-01
RMM:   2    -0.232783817234E+04    0.10281E-04   -0.59432E-03  3805   0.317E-02    0.212E-01
RMM:   3    -0.232783902838E+04   -0.85605E-03   -0.24346E-03  4951   0.206E-02    0.356E-01
RMM:   4    -0.232783787270E+04    0.11557E-02   -0.11681E-03  4209   0.145E-02    0.397E-02
RMM:   5    -0.232783787429E+04   -0.15876E-05   -0.16181E-04  2979   0.516E-03    0.489E-02
RMM:   6    -0.232783785274E+04    0.21543E-04   -0.35852E-05  2677   0.321E-03    0.158E-02
RMM:   7    -0.232783785154E+04    0.12027E-05   -0.14536E-05  2701   0.232E-03
  37 F= -.23488147E+04 E0= -.23488147E+04  d E =-.453463E-16  mag=     5.0000
       N       E                     dE             d eps       ncg     rms          rms(c)
DAV:   1    -0.232781735083E+04    0.20502E-01   -0.60800E-01  4480   0.384E-01    0.229E-01
RMM:   2    -0.232781746709E+04   -0.11627E-03   -0.30380E-03  3654   0.245E-02    0.146E-01
RMM:   3    -0.232781787166E+04   -0.40457E-03   -0.11147E-03  4715   0.129E-02    0.240E-01
RMM:   4    -0.232781732565E+04    0.54601E-03   -0.56054E-04  3688   0.986E-03    0.155E-02
RMM:   5    -0.232781732251E+04    0.31343E-05   -0.59842E-05  2726   0.361E-03
  38 F= -.23487945E+04 E0= -.23487945E+04  d E =-.442954E-16  mag=     5.0000
       N       E                     dE             d eps       ncg     rms          rms(c)
DAV:   1    -0.232783406016E+04   -0.16735E-01   -0.12041E+00  4480   0.495E-01    0.307E-01
RMM:   2    -0.232783407166E+04   -0.11504E-04   -0.37275E-03  3714   0.264E-02    0.183E-01
RMM:   3    -0.232783427278E+04   -0.20112E-03   -0.12578E-03  4711   0.153E-02    0.178E-01
RMM:   4    -0.232783397996E+04    0.29283E-03   -0.40366E-04  3416   0.871E-03    0.404E-02
RMM:   5    -0.232783396854E+04    0.11413E-04   -0.36444E-05  2786   0.356E-03    0.205E-02
RMM:   6    -0.232783396706E+04    0.14854E-05   -0.14712E-05  2487   0.229E-03
  39 F= -.23488107E+04 E0= -.23488107E+04  d E =-.196621E-16  mag=     5.0000
       N       E                     dE             d eps       ncg     rms          rms(c)
DAV:   1    -0.232783938655E+04   -0.54180E-02   -0.62449E-01  4880   0.355E-01    0.312E-01
RMM:   2    -0.232783835955E+04    0.10270E-02   -0.56083E-03  4268   0.291E-02    0.185E-01
RMM:   3    -0.232783859257E+04   -0.23302E-03   -0.14964E-03  3814   0.188E-02    0.248E-01
RMM:   4    -0.232783807576E+04    0.51681E-03   -0.73462E-04  3739   0.118E-02    0.859E-02
RMM:   5    -0.232783805525E+04    0.20516E-04   -0.15129E-04  3377   0.626E-03    0.539E-02
RMM:   6    -0.232783803589E+04    0.19358E-04   -0.59332E-05  2683   0.445E-03    0.301E-02
RMM:   7    -0.232783802778E+04    0.81117E-05   -0.75696E-06  2461   0.219E-03
  40 F= -.23488144E+04 E0= -.23488144E+04  d E =-.216075E-16  mag=     5.0000
       N       E                     dE             d eps       ncg     rms          rms(c)
DAV:   1    -0.232780640748E+04    0.31628E-01   -0.12534E+00  4960   0.511E-01    0.562E-01
RMM:   2    -0.232780182503E+04    0.45824E-02   -0.19961E-02  4493   0.544E-02    0.333E-01
RMM:   3    -0.232780258528E+04   -0.76024E-03   -0.56129E-03  4506   0.364E-02    0.481E-01
RMM:   4    -0.232780047254E+04    0.21127E-02   -0.24459E-03  4741   0.214E-02    0.137E-01
RMM:   5    -0.232780045621E+04    0.16335E-04   -0.59316E-04  4016   0.105E-02    0.123E-01
RMM:   6    -0.232780032411E+04    0.13210E-03   -0.22466E-04  3129   0.733E-03    0.466E-02
RMM:   7    -0.232780030445E+04    0.19659E-04   -0.22981E-05  2762   0.333E-03    0.122E-02
RMM:   8    -0.232780030307E+04    0.13791E-05   -0.79705E-06  2618   0.197E-03
  41 F= -.23487778E+04 E0= -.23487778E+04  d E =-.553571E-16  mag=     5.0000
       N       E                     dE             d eps       ncg     rms          rms(c)
DAV:   1    -0.232784548359E+04   -0.45179E-01   -0.62799E-01  4960   0.372E-01    0.414E-01
RMM:   2    -0.232784276802E+04    0.27156E-02   -0.10504E-02  4324   0.398E-02    0.224E-01
RMM:   3    -0.232784278474E+04   -0.16720E-04   -0.21585E-03  3942   0.239E-02    0.269E-01
RMM:   4    -0.232784220472E+04    0.58001E-03   -0.12444E-03  4172   0.145E-02    0.123E-01
RMM:   5    -0.232784206341E+04    0.14131E-03   -0.22263E-04  3817   0.769E-03    0.357E-02
RMM:   6    -0.232784208313E+04   -0.19719E-04   -0.75378E-05  2857   0.502E-03    0.553E-02
RMM:   7    -0.232784205333E+04    0.29796E-04   -0.23404E-05  2634   0.318E-03    0.829E-03
RMM:   8    -0.232784205265E+04    0.68148E-06   -0.56612E-06  2552   0.166E-03
  42 F= -.23488190E+04 E0= -.23488190E+04  d E =-.191683E-16  mag=     5.0000
       N       E                     dE             d eps       ncg     rms          rms(c)
DAV:   1    -0.232780794923E+04    0.34104E-01   -0.12033E+00  4560   0.503E-01    0.420E-01
RMM:   2    -0.232780638500E+04    0.15642E-02   -0.10141E-02  4223   0.373E-02    0.234E-01
RMM:   3    -0.232780645074E+04   -0.65739E-04   -0.20321E-03  4488   0.239E-02    0.272E-01
RMM:   4    -0.232780594537E+04    0.50536E-03   -0.12613E-03  4446   0.146E-02    0.137E-01
RMM:   5    -0.232780578622E+04    0.15915E-03   -0.21470E-04  3633   0.778E-03    0.377E-02
RMM:   6    -0.232780579199E+04   -0.57686E-05   -0.59651E-05  2906   0.453E-03
  43 F= -.23487827E+04 E0= -.23487827E+04  d E =-.345810E-16  mag=     5.0000
