       N       E                     dE             d eps       ncg     rms          rms(c)
DAV:   1     0.129878418831E+05    0.12988E+05   -0.84555E+05  4560   0.143E+03
DAV:   2    -0.112736399572E+04   -0.14115E+05   -0.13512E+05  5120   0.328E+02
DAV:   3    -0.249920798813E+04   -0.13718E+04   -0.13583E+04  5480   0.111E+02
DAV:   4    -0.253659665180E+04   -0.37389E+02   -0.37226E+02  6240   0.252E+01
DAV:   5    -0.253739741202E+04   -0.80076E+00   -0.79936E+00  5760   0.295E+00    0.170E+02
RMM:   6    -0.149849258371E+04    0.10389E+04   -0.19615E+03  4512   0.380E+01    0.727E+01
RMM:   7    -0.167302341324E+04   -0.17453E+03   -0.28581E+02  5176   0.143E+01    0.534E+01
RMM:   8    -0.172463203704E+04   -0.51609E+02   -0.89283E+01  5431   0.809E+00    0.446E+01
RMM:   9    -0.178998491014E+04   -0.65353E+02   -0.66222E+01  5034   0.780E+00    0.361E+01
RMM:  10    -0.189154757481E+04   -0.10156E+03   -0.58700E+01  5340   0.712E+00    0.290E+01
RMM:  11    -0.198510308879E+04   -0.93556E+02   -0.37132E+01  5236   0.536E+00    0.213E+01
RMM:  12    -0.205717731045E+04   -0.72074E+02   -0.25743E+01  5106   0.424E+00    0.203E+01
RMM:  13    -0.212460088234E+04   -0.67424E+02   -0.28173E+01  5073   0.419E+00    0.149E+01
RMM:  14    -0.221966039561E+04   -0.95060E+02   -0.59670E+01  4611   0.584E+00    0.101E+01
RMM:  15    -0.230520897668E+04   -0.85549E+02   -0.81252E+01  4752   0.621E+00    0.803E+00
RMM:  16    -0.231972481967E+04   -0.14516E+02   -0.15320E+01  4830   0.371E+00    0.477E+00
RMM:  17    -0.232910458083E+04   -0.93798E+01   -0.10553E+01  4559   0.188E+00    0.351E+00
RMM:  18    -0.233239464682E+04   -0.32901E+01   -0.26184E+00  4728   0.157E+00    0.170E+00
RMM:  19    -0.233389652934E+04   -0.15019E+01   -0.12725E+00  5018   0.598E-01    0.106E+00
RMM:  20    -0.233431257404E+04   -0.41604E+00   -0.45875E-01  4815   0.498E-01    0.575E-01
RMM:  21    -0.233444171987E+04   -0.12915E+00   -0.19453E-01  4819   0.225E-01    0.356E-01
RMM:  22    -0.233450819282E+04   -0.66473E-01   -0.66181E-02  4594   0.166E-01    0.200E-01
RMM:  23    -0.233453285271E+04   -0.24660E-01   -0.19188E-02  4739   0.863E-02    0.124E-01
RMM:  24    -0.233454813627E+04   -0.15284E-01   -0.61864E-03  4665   0.590E-02    0.871E-02
RMM:  25    -0.233455752888E+04   -0.93926E-02   -0.26382E-03  4636   0.409E-02    0.663E-02
RMM:  26    -0.233456425236E+04   -0.67235E-02   -0.19430E-03  4563   0.326E-02    0.559E-02
RMM:  27    -0.233456788473E+04   -0.36324E-02   -0.11624E-03  4339   0.261E-02    0.274E-02
RMM:  28    -0.233456921337E+04   -0.13286E-02   -0.49634E-04  4350   0.176E-02    0.241E-02
RMM:  29    -0.233456954717E+04   -0.33380E-03   -0.11518E-04  3965   0.897E-03    0.993E-03
RMM:  30    -0.233456976548E+04   -0.21831E-03   -0.43545E-05  3377   0.598E-03    0.928E-03
RMM:  31    -0.233456988743E+04   -0.12195E-03   -0.22936E-05  3102   0.437E-03    0.547E-03
RMM:  32    -0.233456995592E+04   -0.68496E-04   -0.17421E-05  3015   0.360E-03    0.404E-03
RMM:  33    -0.233456996912E+04   -0.13198E-04   -0.67838E-06  2876   0.321E-03    0.267E-03
RMM:  34    -0.233456997341E+04   -0.42929E-05   -0.39944E-06  2511   0.220E-03
   1 F= -.23560645E+04 E0= -.23560588E+04  d E =-.113315E-01  mag=     4.8229
       N       E                     dE             d eps       ncg     rms          rms(c)
DAV:   1    -0.233454992765E+04    0.20041E-01   -0.21270E+00  4480   0.720E-01    0.326E-01
RMM:   2    -0.233454960444E+04    0.32321E-03   -0.11181E-02  3995   0.528E-02    0.226E-01
RMM:   3    -0.233455090344E+04   -0.12990E-02   -0.37609E-03  4597   0.335E-02    0.414E-01
RMM:   4    -0.233454897155E+04    0.19319E-02   -0.19082E-03  4905   0.191E-02    0.700E-02
RMM:   5    -0.233454906436E+04   -0.92806E-04   -0.39249E-04  3466   0.930E-03    0.102E-01
RMM:   6    -0.233454895229E+04    0.11207E-03   -0.12344E-04  2992   0.550E-03    0.243E-02
RMM:   7    -0.233454895442E+04   -0.21296E-05   -0.28412E-05  2766   0.290E-03
   2 F= -.23560435E+04 E0= -.23560371E+04  d E =-.127717E-01  mag=     4.8094
       N       E                     dE             d eps       ncg     rms          rms(c)
DAV:   1    -0.233455625327E+04   -0.73010E-02   -0.83927E+00  4560   0.145E+00    0.620E-01
RMM:   2    -0.233455544823E+04    0.80504E-03   -0.42825E-02  4260   0.110E-01    0.433E-01
RMM:   3    -0.233455966819E+04   -0.42200E-02   -0.13335E-02  5088   0.632E-02    0.761E-01
RMM:   4    -0.233455305916E+04    0.66090E-02   -0.69761E-03  5552   0.355E-02    0.146E-01
RMM:   5    -0.233455344857E+04   -0.38941E-03   -0.16352E-03  4373   0.176E-02    0.215E-01
RMM:   6    -0.233455294241E+04    0.50616E-03   -0.51514E-04  3548   0.977E-03    0.450E-02
RMM:   7    -0.233455295413E+04   -0.11719E-04   -0.11922E-04  3094   0.524E-03    0.592E-02
RMM:   8    -0.233455292364E+04    0.30490E-04   -0.59399E-05  2975   0.424E-03    0.194E-02
RMM:   9    -0.233455292303E+04    0.61552E-06   -0.13051E-05  2880   0.283E-03
   3 F= -.23560473E+04 E0= -.23560422E+04  d E =-.102183E-01  mag=     4.8310
       N       E                     dE             d eps       ncg     rms          rms(c)
DAV:   1    -0.233455517101E+04   -0.22474E-02   -0.41778E+00  4480   0.988E-01    0.402E-01
RMM:   2    -0.233455501312E+04    0.15790E-03   -0.18342E-02  4076   0.725E-02    0.285E-01
RMM:   3    -0.233455625329E+04   -0.12402E-02   -0.55947E-03  4374   0.415E-02    0.409E-01
RMM:   4    -0.233455419641E+04    0.20569E-02   -0.34902E-03  4536   0.236E-02    0.993E-02
RMM:   5    -0.233455420530E+04   -0.88919E-05   -0.63998E-04  3507   0.163E-02    0.110E-01
RMM:   6    -0.233455405556E+04    0.14975E-03   -0.11884E-04  3108   0.537E-03    0.210E-02
RMM:   7    -0.233455405354E+04    0.20145E-05   -0.44377E-05  2905   0.308E-03
   4 F= -.23560482E+04 E0= -.23560435E+04  d E =-.938975E-02  mag=     4.8464
       N       E                     dE             d eps       ncg     rms          rms(c)
DAV:   1    -0.233455353190E+04    0.52366E-03   -0.82386E+00  4480   0.136E+00    0.578E-01
RMM:   2    -0.233455515288E+04   -0.16210E-02   -0.42246E-02  4447   0.111E-01    0.574E-01
RMM:   3    -0.233455429791E+04    0.85497E-03   -0.99842E-03  4524   0.607E-02    0.507E-01
RMM:   4    -0.233455226460E+04    0.20333E-02   -0.54622E-03  5044   0.327E-02    0.290E-01
RMM:   5    -0.233455159351E+04    0.67109E-03   -0.20961E-03  4672   0.255E-02    0.170E-01
RMM:   6    -0.233455132424E+04    0.26927E-03   -0.29604E-04  3339   0.823E-03    0.641E-02
RMM:   7    -0.233455133900E+04   -0.14764E-04   -0.12948E-04  3152   0.603E-03    0.830E-02
RMM:   8    -0.233455129060E+04    0.48402E-04   -0.67040E-05  3080   0.472E-03    0.347E-02
RMM:   9    -0.233455129099E+04   -0.39102E-06   -0.29841E-05  2931   0.373E-03
   5 F= -.23560461E+04 E0= -.23560388E+04  d E =-.145263E-01  mag=     4.7897
       N       E                     dE             d eps       ncg     rms          rms(c)
DAV:   1    -0.233457189474E+04   -0.20604E-01   -0.41918E+00  4560   0.959E-01    0.384E-01
RMM:   2    -0.233457241386E+04   -0.51912E-03   -0.19768E-02  4323   0.758E-02    0.348E-01
RMM:   3    -0.233457241734E+04   -0.34800E-05   -0.45036E-03  4409   0.407E-02    0.346E-01
RMM:   4    -0.233457139590E+04    0.10214E-02   -0.28366E-03  4734   0.231E-02    0.170E-01
RMM:   5    -0.233457131620E+04    0.79705E-04   -0.88893E-04  3876   0.155E-02    0.140E-01
RMM:   6    -0.233457112357E+04    0.19263E-03   -0.18603E-04  3263   0.715E-03    0.579E-02
RMM:   7    -0.233457111118E+04    0.12395E-04   -0.79247E-05  2950   0.465E-03    0.427E-02
RMM:   8    -0.233457109266E+04    0.18516E-04   -0.37252E-05  3007   0.377E-03    0.185E-02
RMM:   9    -0.233457109641E+04   -0.37499E-05   -0.10488E-05  2827   0.293E-03
   6 F= -.23560660E+04 E0= -.23560610E+04  d E =-.997607E-02  mag=     4.8312
       N       E                     dE             d eps       ncg     rms          rms(c)
DAV:   1    -0.233457159769E+04   -0.50503E-03   -0.76809E+00  4480   0.127E+00    0.625E-01
RMM:   2    -0.233457570075E+04   -0.41031E-02   -0.47552E-02  5157   0.103E-01    0.828E-01
RMM:   3    -0.233457073925E+04    0.49615E-02   -0.13378E-02  5478   0.541E-02    0.479E-01
RMM:   4    -0.233456890111E+04    0.18381E-02   -0.41921E-03  4961   0.270E-02    0.302E-01
RMM:   5    -0.233456876265E+04    0.13846E-03   -0.24992E-03  4554   0.225E-02    0.272E-01
RMM:   6    -0.233456817406E+04    0.58859E-03   -0.55399E-04  3939   0.117E-02    0.642E-02
RMM:   7    -0.233456821830E+04   -0.44240E-04   -0.24337E-04  3231   0.867E-03    0.822E-02
RMM:   8    -0.233456815329E+04    0.65005E-04   -0.99864E-05  3052   0.585E-03    0.215E-02
RMM:   9    -0.233456817226E+04   -0.18967E-04   -0.25224E-05  3002   0.392E-03    0.130E-02
RMM:  10    -0.233456819123E+04   -0.18969E-04   -0.10081E-05  2913   0.313E-03    0.800E-03
RMM:  11    -0.233456820746E+04   -0.16227E-04   -0.76258E-06  2853   0.274E-03    0.460E-03
RMM:  12    -0.233456821438E+04   -0.69205E-05   -0.33729E-06  2666   0.236E-03
   7 F= -.23560622E+04 E0= -.23560551E+04  d E =-.143453E-01  mag=     4.7614
       N       E                     dE             d eps       ncg     rms          rms(c)
DAV:   1    -0.233455081296E+04    0.17394E-01   -0.40806E+00  4640   0.102E+00    0.398E-01
RMM:   2    -0.233455091955E+04   -0.10659E-03   -0.21465E-02  4374   0.839E-02    0.388E-01
RMM:   3    -0.233455085766E+04    0.61886E-04   -0.51631E-03  4492   0.419E-02    0.388E-01
RMM:   4    -0.233454929196E+04    0.15657E-02   -0.32525E-03  4301   0.247E-02    0.148E-01
RMM:   5    -0.233454935911E+04   -0.67146E-04   -0.95576E-04  3727   0.195E-02    0.176E-01
RMM:   6    -0.233454911014E+04    0.24896E-03   -0.19886E-04  3295   0.689E-03    0.355E-02
RMM:   7    -0.233454910401E+04    0.61286E-05   -0.66384E-05  3146   0.444E-03
   8 F= -.23560431E+04 E0= -.23560358E+04  d E =-.146060E-01  mag=     4.7599
       N       E                     dE             d eps       ncg     rms          rms(c)
DAV:   1    -0.233455714402E+04   -0.80339E-02   -0.86260E+00  4480   0.157E+00    0.620E-01
RMM:   2    -0.233455279182E+04    0.43522E-02   -0.38593E-02  4049   0.113E-01    0.396E-01
RMM:   3    -0.233455679913E+04   -0.40073E-02   -0.17616E-02  5265   0.762E-02    0.790E-01
RMM:   4    -0.233455033088E+04    0.64682E-02   -0.88690E-03  5423   0.398E-02    0.113E-01
RMM:   5    -0.233455050309E+04   -0.17222E-03   -0.13085E-03  3712   0.188E-02    0.181E-01
RMM:   6    -0.233455014934E+04    0.35375E-03   -0.34979E-04  3597   0.825E-03    0.478E-02
RMM:   7    -0.233455016038E+04   -0.11039E-04   -0.11516E-04  3234   0.549E-03    0.525E-02
RMM:   8    -0.233455013356E+04    0.26826E-04   -0.62200E-05  3112   0.475E-03    0.293E-02
RMM:   9    -0.233455014012E+04   -0.65604E-05   -0.14536E-05  2853   0.340E-03
   9 F= -.23560452E+04 E0= -.23560403E+04  d E =-.974776E-02  mag=     4.8286
       N       E                     dE             d eps       ncg     rms          rms(c)
DAV:   1    -0.233455727907E+04   -0.71455E-02   -0.43339E+00  4400   0.111E+00    0.424E-01
RMM:   2    -0.233455562419E+04    0.16549E-02   -0.18984E-02  3936   0.758E-02    0.282E-01
RMM:   3    -0.233455764836E+04   -0.20242E-02   -0.67749E-03  4359   0.479E-02    0.532E-01
RMM:   4    -0.233455457292E+04    0.30754E-02   -0.50225E-03  4361   0.295E-02    0.126E-01
RMM:   5    -0.233455440093E+04    0.17199E-03   -0.70977E-04  3524   0.215E-02    0.754E-02
RMM:   6    -0.233455431177E+04    0.89164E-04   -0.89189E-05  3282   0.513E-03    0.216E-02
RMM:   7    -0.233455431700E+04   -0.52309E-05   -0.37721E-05  2839   0.350E-03
  10 F= -.23560491E+04 E0= -.23560440E+04  d E =-.101704E-01  mag=     4.8434
       N       E                     dE             d eps       ncg     rms          rms(c)
DAV:   1    -0.233455718272E+04   -0.28710E-02   -0.85839E+00  4400   0.157E+00    0.638E-01
RMM:   2    -0.233455325271E+04    0.39300E-02   -0.44422E-02  4285   0.113E-01    0.517E-01
RMM:   3    -0.233455629383E+04   -0.30411E-02   -0.14331E-02  4766   0.724E-02    0.778E-01
RMM:   4    -0.233454921720E+04    0.70766E-02   -0.12468E-02  4661   0.449E-02    0.145E-01
RMM:   5    -0.233454927364E+04   -0.56446E-04   -0.16653E-03  3736   0.310E-02    0.197E-01
RMM:   6    -0.233454891540E+04    0.35824E-03   -0.34656E-04  3785   0.877E-03    0.434E-02
RMM:   7    -0.233454893609E+04   -0.20696E-04   -0.11074E-04  3104   0.533E-03    0.534E-02
RMM:   8    -0.233454891745E+04    0.18640E-04   -0.54106E-05  3141   0.433E-03    0.199E-02
RMM:   9    -0.233454892876E+04   -0.11306E-04   -0.14144E-05  2883   0.311E-03    0.105E-02
RMM:  10    -0.233454894168E+04   -0.12916E-04   -0.65392E-06  2733   0.237E-03    0.588E-03
RMM:  11    -0.233454894964E+04   -0.79662E-05   -0.33599E-06  2673   0.209E-03
  11 F= -.23560431E+04 E0= -.23560364E+04  d E =-.133760E-01  mag=     4.7846
       N       E                     dE             d eps       ncg     rms          rms(c)
DAV:   1    -0.233456361265E+04   -0.14671E-01   -0.42921E+00  4400   0.109E+00    0.438E-01
RMM:   2    -0.233456189963E+04    0.17130E-02   -0.21345E-02  4268   0.797E-02    0.407E-01
RMM:   3    -0.233456211942E+04   -0.21979E-03   -0.56456E-03  4626   0.453E-02    0.458E-01
RMM:   4    -0.233455975430E+04    0.23651E-02   -0.60822E-03  4288   0.304E-02    0.181E-01
RMM:   5    -0.233455970694E+04    0.47359E-04   -0.73008E-04  3549   0.208E-02    0.204E-01
RMM:   6    -0.233455967426E+04    0.32686E-04   -0.77444E-05  3354   0.442E-03    0.194E-01
RMM:   7    -0.233455965246E+04    0.21796E-04   -0.69435E-04  4189   0.112E-02    0.150E-01
RMM:   8    -0.233455935162E+04    0.30084E-03   -0.14315E-03  4317   0.158E-02    0.187E-01
RMM:   9    -0.233455892276E+04    0.42887E-03   -0.58451E-04  3875   0.107E-02    0.166E-01
RMM:  10    -0.233455925443E+04   -0.33167E-03   -0.38753E-04  3653   0.886E-03    0.131E-01
RMM:  11    -0.233455954162E+04   -0.28719E-03   -0.13290E-03  4447   0.155E-02    0.905E-02
RMM:  12    -0.233456003627E+04   -0.49465E-03   -0.23306E-03  4631   0.209E-02    0.187E-01
RMM:  13    -0.233455966976E+04    0.36651E-03   -0.63504E-04  4003   0.116E-02    0.833E-02
RMM:  14    -0.233455933337E+04    0.33639E-03   -0.17112E-03  4582   0.171E-02    0.878E-02
RMM:  15    -0.233455905979E+04    0.27358E-03   -0.81761E-04  4038   0.135E-02    0.125E-01
RMM:  16    -0.233455886745E+04    0.19235E-03   -0.36240E-04  3552   0.810E-03    0.156E-01
RMM:  17    -0.233455883298E+04    0.34470E-04   -0.40464E-05  2971   0.458E-03    0.162E-01
RMM:  18    -0.233455885078E+04   -0.17803E-04   -0.53445E-06  2666   0.196E-03    0.161E-01
RMM:  19    -0.233455915303E+04   -0.30225E-03   -0.34369E-04  3319   0.726E-03    0.126E-01
RMM:  20    -0.233455939469E+04   -0.24166E-03   -0.57499E-04  4048   0.988E-03    0.109E-01
RMM:  21    -0.233455960175E+04   -0.20707E-03   -0.53338E-04  3663   0.963E-03    0.121E-01
RMM:  22    -0.233455981776E+04   -0.21601E-03   -0.36145E-04  3587   0.841E-03    0.153E-01
RMM:  23    -0.233455957905E+04    0.23871E-03   -0.25578E-04  3188   0.739E-03    0.105E-01
RMM:  24    -0.233455907104E+04    0.50801E-03   -0.23335E-03  4694   0.190E-02    0.127E-01
RMM:  25    -0.233455852289E+04    0.54815E-03   -0.11651E-03  4178   0.154E-02    0.214E-01
RMM:  26    -0.233455845362E+04    0.69266E-04   -0.16637E-04  3082   0.555E-03    0.227E-01
RMM:  27    -0.233455834013E+04    0.11349E-03   -0.39467E-05  2929   0.375E-03    0.243E-01
RMM:  28    -0.233455889780E+04   -0.55766E-03   -0.55892E-04  3538   0.916E-03    0.164E-01
RMM:  29    -0.233455890104E+04   -0.32492E-05   -0.37867E-05  2837   0.395E-03
  12 F= -.23560535E+04 E0= -.23560483E+04  d E =-.104387E-01  mag=     4.8562
       N       E                     dE             d eps       ncg     rms          rms(c)
DAV:   1    -0.233456579121E+04   -0.68934E-02   -0.82608E+00  4480   0.145E+00    0.541E-01
RMM:   2    -0.233456318516E+04    0.26061E-02   -0.41409E-02  4572   0.111E-01    0.407E-01
RMM:   3    -0.233456533073E+04   -0.21456E-02   -0.10021E-02  4945   0.598E-02    0.643E-01
RMM:   4    -0.233456032465E+04    0.50061E-02   -0.66158E-03  4854   0.356E-02    0.145E-01
RMM:   5    -0.233456042657E+04   -0.10192E-03   -0.14864E-03  3965   0.259E-02    0.176E-01
RMM:   6    -0.233456010573E+04    0.32084E-03   -0.34309E-04  3594   0.803E-03    0.395E-02
RMM:   7    -0.233456012055E+04   -0.14818E-04   -0.10683E-04  3158   0.503E-03    0.543E-02
RMM:   8    -0.233456008908E+04    0.31470E-04   -0.39529E-05  2832   0.376E-03    0.147E-02
RMM:   9    -0.233456008873E+04    0.34533E-06   -0.11067E-05  2802   0.263E-03
  13 F= -.23560544E+04 E0= -.23560508E+04  d E =-.739748E-02  mag=     4.8866
       N       E                     dE             d eps       ncg     rms          rms(c)
DAV:   1    -0.233456328330E+04   -0.31942E-02   -0.24198E+00  4200   0.813E-01    0.392E-01
RMM:   2    -0.233456121234E+04    0.20710E-02   -0.16279E-02  4303   0.653E-02    0.243E-01
RMM:   3    -0.233456262434E+04   -0.14120E-02   -0.45614E-03  4488   0.419E-02    0.454E-01
RMM:   4    -0.233456036354E+04    0.22608E-02   -0.23348E-03  4843   0.215E-02    0.103E-01
RMM:   5    -0.233456044088E+04   -0.77344E-04   -0.53817E-04  3759   0.125E-02    0.114E-01
RMM:   6    -0.233456027768E+04    0.16320E-03   -0.23599E-04  3395   0.748E-03    0.395E-02
RMM:   7    -0.233456026363E+04    0.14052E-04   -0.31877E-05  2977   0.385E-03    0.210E-02
RMM:   8    -0.233456026750E+04   -0.38680E-05   -0.12247E-05  2849   0.291E-03
  14 F= -.23560550E+04 E0= -.23560490E+04  d E =-.120288E-01  mag=     4.8315
       N       E                     dE             d eps       ncg     rms          rms(c)
DAV:   1    -0.233456541960E+04   -0.51560E-02   -0.13031E+00  4840   0.527E-01    0.523E-01
RMM:   2    -0.233456197410E+04    0.34455E-02   -0.17244E-02  4043   0.621E-02    0.294E-01
RMM:   3    -0.233456313872E+04   -0.11646E-02   -0.62936E-03  4408   0.483E-02    0.464E-01
RMM:   4    -0.233456132065E+04    0.18181E-02   -0.29208E-03  4973   0.237E-02    0.105E-01
RMM:   5    -0.233456130305E+04    0.17600E-04   -0.54759E-04  4016   0.113E-02    0.999E-02
RMM:   6    -0.233456121867E+04    0.84381E-04   -0.19785E-04  3127   0.705E-03    0.533E-02
RMM:   7    -0.233456120097E+04    0.17700E-04   -0.37371E-05  2693   0.378E-03    0.295E-02
RMM:   8    -0.233456119218E+04    0.87942E-05   -0.13019E-05  2448   0.239E-03
  15 F= -.23560554E+04 E0= -.23560502E+04  d E =-.105844E-01  mag=     4.8347
       N       E                     dE             d eps       ncg     rms          rms(c)
DAV:   1    -0.233456656697E+04   -0.53660E-02   -0.66615E-01  4880   0.381E-01    0.444E-01
RMM:   2    -0.233456325705E+04    0.33099E-02   -0.11504E-02  3914   0.488E-02    0.237E-01
RMM:   3    -0.233456356919E+04   -0.31214E-03   -0.40353E-03  4338   0.373E-02    0.316E-01
RMM:   4    -0.233456272313E+04    0.84607E-03   -0.17350E-03  4765   0.180E-02    0.101E-01
RMM:   5    -0.233456266682E+04    0.56302E-04   -0.36908E-04  3864   0.877E-03    0.798E-02
RMM:   6    -0.233456261218E+04    0.54647E-04   -0.13187E-04  2934   0.608E-03    0.421E-02
RMM:   7    -0.233456259677E+04    0.15402E-04   -0.23420E-05  2583   0.314E-03    0.247E-02
RMM:   8    -0.233456259142E+04    0.53533E-05   -0.89477E-06  2287   0.194E-03
  16 F= -.23560574E+04 E0= -.23560519E+04  d E =-.111176E-01  mag=     4.8295
       N       E                     dE             d eps       ncg     rms          rms(c)
DAV:   1    -0.233456674771E+04   -0.41509E-02   -0.12675E+00  4760   0.512E-01    0.468E-01
RMM:   2    -0.233456424812E+04    0.24996E-02   -0.12460E-02  4037   0.527E-02    0.260E-01
RMM:   3    -0.233456449047E+04   -0.24235E-03   -0.39922E-03  4257   0.389E-02    0.286E-01
RMM:   4    -0.233456388491E+04    0.60556E-03   -0.17510E-03  4662   0.182E-02    0.115E-01
RMM:   5    -0.233456378351E+04    0.10139E-03   -0.31923E-04  3893   0.881E-03    0.662E-02
RMM:   6    -0.233456375921E+04    0.24301E-04   -0.11450E-04  2908   0.574E-03    0.421E-02
RMM:   7    -0.233456374087E+04    0.18340E-04   -0.19021E-05  2600   0.313E-03    0.164E-02
RMM:   8    -0.233456374204E+04   -0.11729E-05   -0.95917E-06  2372   0.197E-03
  17 F= -.23560579E+04 E0= -.23560521E+04  d E =-.115205E-01  mag=     4.8245
       N       E                     dE             d eps       ncg     rms          rms(c)
DAV:   1    -0.233456925903E+04   -0.55182E-02   -0.62251E-01  4760   0.365E-01    0.289E-01
RMM:   2    -0.233456871959E+04    0.53943E-03   -0.54820E-03  3751   0.326E-02    0.167E-01
RMM:   3    -0.233456912572E+04   -0.40613E-03   -0.16554E-03  4068   0.252E-02    0.247E-01
RMM:   4    -0.233456856132E+04    0.56440E-03   -0.80749E-04  4273   0.129E-02    0.697E-02
RMM:   5    -0.233456857394E+04   -0.12622E-04   -0.15137E-04  3247   0.640E-03    0.823E-02
RMM:   6    -0.233456851414E+04    0.59802E-04   -0.67190E-05  2670   0.421E-03    0.187E-02
RMM:   7    -0.233456851251E+04    0.16297E-05   -0.71265E-06  2487   0.223E-03
  18 F= -.23560630E+04 E0= -.23560572E+04  d E =-.117583E-01  mag=     4.8164
       N       E                     dE             d eps       ncg     rms          rms(c)
DAV:   1    -0.233456832268E+04    0.19146E-03   -0.12050E+00  4400   0.513E-01    0.329E-01
RMM:   2    -0.233456877100E+04   -0.44832E-03   -0.70278E-03  3758   0.387E-02    0.211E-01
RMM:   3    -0.233457040358E+04   -0.16326E-02   -0.28495E-03  4291   0.300E-02    0.394E-01
RMM:   4    -0.233456865770E+04    0.17459E-02   -0.14550E-03  4264   0.170E-02    0.872E-02
RMM:   5    -0.233456857892E+04    0.78775E-04   -0.23743E-04  3114   0.910E-03    0.403E-02
RMM:   6    -0.233456856249E+04    0.16428E-04   -0.28240E-05  2802   0.316E-03    0.155E-02
RMM:   7    -0.233456856364E+04   -0.11480E-05   -0.10707E-05  2605   0.216E-03
  19 F= -.23560630E+04 E0= -.23560575E+04  d E =-.110467E-01  mag=     4.8249
       N       E                     dE             d eps       ncg     rms          rms(c)
DAV:   1    -0.233456275396E+04    0.58085E-02   -0.61976E-01  4960   0.390E-01    0.320E-01
RMM:   2    -0.233456186119E+04    0.89277E-03   -0.64746E-03  3981   0.403E-02    0.183E-01
RMM:   3    -0.233456219571E+04   -0.33452E-03   -0.20943E-03  4212   0.277E-02    0.235E-01
RMM:   4    -0.233456169200E+04    0.50370E-03   -0.89796E-04  4112   0.128E-02    0.670E-02
RMM:   5    -0.233456171142E+04   -0.19419E-04   -0.24030E-04  3557   0.745E-03    0.835E-02
RMM:   6    -0.233456163619E+04    0.75230E-04   -0.86913E-05  2931   0.512E-03    0.237E-02
RMM:   7    -0.233456163777E+04   -0.15777E-05   -0.17134E-05  2514   0.285E-03
  20 F= -.23560556E+04 E0= -.23560505E+04  d E =-.101380E-01  mag=     4.8388
       N       E                     dE             d eps       ncg     rms          rms(c)
DAV:   1    -0.233456545898E+04   -0.38228E-02   -0.12459E+00  5120   0.534E-01    0.557E-01
RMM:   2    -0.233456036800E+04    0.50910E-02   -0.17831E-02  4226   0.622E-02    0.293E-01
RMM:   3    -0.233456103658E+04   -0.66858E-03   -0.60086E-03  4293   0.504E-02    0.396E-01
RMM:   4    -0.233455970194E+04    0.13346E-02   -0.26402E-03  4992   0.231E-02    0.126E-01
RMM:   5    -0.233455972860E+04   -0.26658E-04   -0.62042E-04  4102   0.115E-02    0.135E-01
RMM:   6    -0.233455954080E+04    0.18781E-03   -0.24836E-04  3270   0.829E-03    0.524E-02
RMM:   7    -0.233455952948E+04    0.11320E-04   -0.47777E-05  2810   0.409E-03    0.355E-02
RMM:   8    -0.233455951714E+04    0.12339E-04   -0.16684E-05  2580   0.272E-03    0.189E-02
RMM:   9    -0.233455951888E+04   -0.17410E-05   -0.82666E-06  2584   0.180E-03
  21 F= -.23560545E+04 E0= -.23560480E+04  d E =-.130160E-01  mag=     4.8033
       N       E                     dE             d eps       ncg     rms          rms(c)
DAV:   1    -0.233456595052E+04   -0.64334E-02   -0.59618E-01  4640   0.370E-01    0.240E-01
RMM:   2    -0.233456581935E+04    0.13117E-03   -0.38009E-03  3821   0.298E-02    0.148E-01
RMM:   3    -0.233456650738E+04   -0.68803E-03   -0.15769E-03  3945   0.247E-02    0.276E-01
RMM:   4    -0.233456576035E+04    0.74704E-03   -0.69994E-04  4211   0.126E-02    0.473E-02
RMM:   5    -0.233456581794E+04   -0.57596E-04   -0.16530E-04  3043   0.658E-03    0.829E-02
RMM:   6    -0.233456575123E+04    0.66716E-04   -0.64831E-05  2846   0.410E-03    0.163E-02
RMM:   7    -0.233456575273E+04   -0.15047E-05   -0.13556E-05  2632   0.255E-03
  22 F= -.23560603E+04 E0= -.23560547E+04  d E =-.113043E-01  mag=     4.8135
       N       E                     dE             d eps       ncg     rms          rms(c)
DAV:   1    -0.233456808007E+04   -0.23288E-02   -0.12307E+00  4760   0.521E-01    0.381E-01
RMM:   2    -0.233456722868E+04    0.85139E-03   -0.78237E-03  3947   0.434E-02    0.219E-01
RMM:   3    -0.233456820270E+04   -0.97403E-03   -0.28271E-03  4274   0.326E-02    0.332E-01
RMM:   4    -0.233456703464E+04    0.11681E-02   -0.11408E-03  4665   0.151E-02    0.621E-02
RMM:   5    -0.233456699283E+04    0.41804E-04   -0.19253E-04  3646   0.703E-03    0.334E-02
RMM:   6    -0.233456699906E+04   -0.62257E-05   -0.50445E-05  2791   0.457E-03
  23 F= -.23560614E+04 E0= -.23560554E+04  d E =-.119801E-01  mag=     4.8153
       N       E                     dE             d eps       ncg     rms          rms(c)
DAV:   1    -0.233456602588E+04    0.96695E-03   -0.60810E-01  4640   0.373E-01    0.224E-01
RMM:   2    -0.233456623281E+04   -0.20693E-03   -0.31141E-03  3658   0.269E-02    0.142E-01
RMM:   3    -0.233456669649E+04   -0.46368E-03   -0.11248E-03  4087   0.200E-02    0.220E-01
RMM:   4    -0.233456620816E+04    0.48833E-03   -0.57933E-04  3893   0.110E-02    0.480E-02
RMM:   5    -0.233456621740E+04   -0.92438E-05   -0.94823E-05  2880   0.478E-03
  24 F= -.23560607E+04 E0= -.23560537E+04  d E =-.140134E-01  mag=     4.7944
       N       E                     dE             d eps       ncg     rms          rms(c)
DAV:   1    -0.233456802743E+04   -0.18193E-02   -0.11939E+00  4840   0.531E-01    0.375E-01
RMM:   2    -0.233456780730E+04    0.22014E-03   -0.83136E-03  3866   0.462E-02    0.232E-01
RMM:   3    -0.233456922895E+04   -0.14217E-02   -0.32502E-03  4788   0.336E-02    0.381E-01
RMM:   4    -0.233456762831E+04    0.16006E-02   -0.16979E-03  4771   0.189E-02    0.102E-01
RMM:   5    -0.233456773086E+04   -0.10256E-03   -0.50839E-04  3466   0.927E-03    0.125E-01
RMM:   6    -0.233456755713E+04    0.17373E-03   -0.21108E-04  3539   0.742E-03    0.271E-02
RMM:   7    -0.233456755401E+04    0.31231E-05   -0.32856E-05  2983   0.411E-03
  25 F= -.23560621E+04 E0= -.23560572E+04  d E =-.970210E-02  mag=     4.8292
       N       E                     dE             d eps       ncg     rms          rms(c)
DAV:   1    -0.233456832981E+04   -0.77268E-03   -0.60116E-01  4600   0.376E-01    0.242E-01
RMM:   2    -0.233456848610E+04   -0.15628E-03   -0.35885E-03  3737   0.310E-02    0.152E-01
RMM:   3    -0.233456919801E+04   -0.71191E-03   -0.14598E-03  3882   0.227E-02    0.280E-01
RMM:   4    -0.233456843909E+04    0.75893E-03   -0.67780E-04  3898   0.120E-02    0.329E-02
RMM:   5    -0.233456846852E+04   -0.29440E-04   -0.11631E-04  2954   0.640E-03    0.564E-02
RMM:   6    -0.233456843784E+04    0.30689E-04   -0.34049E-05  2685   0.309E-03    0.152E-02
RMM:   7    -0.233456843968E+04   -0.18420E-05   -0.94144E-06  2604   0.206E-03
  26 F= -.23560627E+04 E0= -.23560570E+04  d E =-.113955E-01  mag=     4.8271
       N       E                     dE             d eps       ncg     rms          rms(c)
DAV:   1    -0.233456712354E+04    0.13143E-02   -0.12333E+00  4160   0.482E-01    0.338E-01
RMM:   2    -0.233456717138E+04   -0.47840E-04   -0.63145E-03  3744   0.390E-02    0.200E-01
RMM:   3    -0.233456718363E+04   -0.12247E-04   -0.14042E-03  3881   0.252E-02    0.563E-02
RMM:   4    -0.233456723640E+04   -0.52773E-04   -0.36113E-04  3496   0.912E-03    0.827E-02
RMM:   5    -0.233456715915E+04    0.77248E-04   -0.61370E-05  2968   0.602E-03    0.226E-02
RMM:   6    -0.233456715825E+04    0.90316E-06   -0.21769E-05  2597   0.259E-03
  27 F= -.23560619E+04 E0= -.23560563E+04  d E =-.112375E-01  mag=     4.8273
       N       E                     dE             d eps       ncg     rms          rms(c)
DAV:   1    -0.233455846843E+04    0.86907E-02   -0.63332E-01  4200   0.355E-01    0.289E-01
RMM:   2    -0.233455794465E+04    0.52379E-03   -0.51860E-03  3685   0.312E-02    0.166E-01
RMM:   3    -0.233455804599E+04   -0.10134E-03   -0.14612E-03  4219   0.216E-02    0.175E-01
RMM:   4    -0.233455781161E+04    0.23438E-03   -0.51803E-04  3548   0.947E-03    0.732E-02
RMM:   5    -0.233455779537E+04    0.16237E-04   -0.12860E-04  3068   0.642E-03    0.592E-02
RMM:   6    -0.233455776055E+04    0.34829E-04   -0.57731E-05  2724   0.411E-03    0.251E-02
RMM:   7    -0.233455775755E+04    0.29950E-05   -0.99478E-06  2386   0.255E-03
  28 F= -.23560522E+04 E0= -.23560463E+04  d E =-.116591E-01  mag=     4.8227
       N       E                     dE             d eps       ncg     rms          rms(c)
DAV:   1    -0.233456712714E+04   -0.93666E-02   -0.12955E+00  4600   0.504E-01    0.536E-01
RMM:   2    -0.233456297483E+04    0.41523E-02   -0.18141E-02  4013   0.605E-02    0.294E-01
RMM:   3    -0.233456357629E+04   -0.60146E-03   -0.60564E-03  4450   0.469E-02    0.392E-01
RMM:   4    -0.233456227440E+04    0.13019E-02   -0.28098E-03  4761   0.222E-02    0.130E-01
RMM:   5    -0.233456222567E+04    0.48730E-04   -0.54255E-04  4016   0.109E-02    0.110E-01
RMM:   6    -0.233456213038E+04    0.95287E-04   -0.24820E-04  3292   0.800E-03    0.583E-02
RMM:   7    -0.233456210848E+04    0.21901E-04   -0.45018E-05  2768   0.436E-03    0.363E-02
RMM:   8    -0.233456209559E+04    0.12891E-04   -0.15877E-05  2454   0.255E-03    0.156E-02
RMM:   9    -0.233456209324E+04    0.23498E-05   -0.83008E-06  2542   0.184E-03
  29 F= -.23560567E+04 E0= -.23560511E+04  d E =-.111363E-01  mag=     4.8232
       N       E                     dE             d eps       ncg     rms          rms(c)
DAV:   1    -0.233456816525E+04   -0.60697E-02   -0.66174E-01  4480   0.367E-01    0.427E-01
RMM:   2    -0.233456524068E+04    0.29246E-02   -0.11262E-02  4047   0.494E-02    0.232E-01
RMM:   3    -0.233456587914E+04   -0.63846E-03   -0.40029E-03  4409   0.373E-02    0.347E-01
RMM:   4    -0.233456479891E+04    0.10802E-02   -0.17646E-03  4752   0.187E-02    0.102E-01
RMM:   5    -0.233456480074E+04   -0.18269E-05   -0.37305E-04  3599   0.935E-03    0.116E-01
RMM:   6    -0.233456468653E+04    0.11422E-03   -0.17455E-04  3023   0.637E-03    0.404E-02
RMM:   7    -0.233456467603E+04    0.10491E-04   -0.16924E-05  2599   0.315E-03    0.130E-02
RMM:   8    -0.233456467704E+04   -0.10052E-05   -0.86466E-06  2292   0.198E-03
  30 F= -.23560589E+04 E0= -.23560534E+04  d E =-.109037E-01  mag=     4.8309
       N       E                     dE             d eps       ncg     rms          rms(c)
DAV:   1    -0.233456697728E+04   -0.23012E-02   -0.12459E+00  4280   0.499E-01    0.450E-01
RMM:   2    -0.233456513608E+04    0.18412E-02   -0.12018E-02  4105   0.515E-02    0.260E-01
RMM:   3    -0.233456696640E+04   -0.18303E-02   -0.47603E-03  4416   0.407E-02    0.460E-01
RMM:   4    -0.233456473887E+04    0.22275E-02   -0.21924E-03  4993   0.211E-02    0.974E-02
RMM:   5    -0.233456485282E+04   -0.11395E-03   -0.49240E-04  3585   0.101E-02    0.153E-01
RMM:   6    -0.233456463655E+04    0.21627E-03   -0.22212E-04  3303   0.706E-03    0.255E-02
RMM:   7    -0.233456464081E+04   -0.42596E-05   -0.34480E-05  2730   0.355E-03
  31 F= -.23560594E+04 E0= -.23560534E+04  d E =-.118554E-01  mag=     4.8175
       N       E                     dE             d eps       ncg     rms          rms(c)
DAV:   1    -0.233456792403E+04   -0.32875E-02   -0.62937E-01  4680   0.390E-01    0.294E-01
RMM:   2    -0.233456747075E+04    0.45328E-03   -0.58840E-03  3996   0.365E-02    0.180E-01
RMM:   3    -0.233456836711E+04   -0.89636E-03   -0.20805E-03  4106   0.271E-02    0.322E-01
RMM:   4    -0.233456727377E+04    0.10933E-02   -0.10458E-03  4389   0.147E-02    0.714E-02
RMM:   5    -0.233456731511E+04   -0.41340E-04   -0.21194E-04  3139   0.782E-03    0.921E-02
RMM:   6    -0.233456722496E+04    0.90145E-04   -0.80855E-05  2829   0.451E-03    0.190E-02
RMM:   7    -0.233456722976E+04   -0.47981E-05   -0.27846E-05  2729   0.279E-03
  32 F= -.23560613E+04 E0= -.23560558E+04  d E =-.110147E-01  mag=     4.8249
       N       E                     dE             d eps       ncg     rms          rms(c)
DAV:   1    -0.233456600108E+04    0.12239E-02   -0.12489E+00  4840   0.479E-01    0.404E-01
RMM:   2    -0.233456492173E+04    0.10793E-02   -0.10423E-02  4274   0.422E-02    0.231E-01
RMM:   3    -0.233456529523E+04   -0.37349E-03   -0.22038E-03  4064   0.307E-02    0.284E-01
RMM:   4    -0.233456471392E+04    0.58131E-03   -0.13294E-03  4564   0.157E-02    0.135E-01
RMM:   5    -0.233456462963E+04    0.84287E-04   -0.24355E-04  3428   0.846E-03    0.880E-02
RMM:   6    -0.233456456559E+04    0.64040E-04   -0.87158E-05  2850   0.502E-03    0.330E-02
RMM:   7    -0.233456455617E+04    0.94226E-05   -0.10159E-05  2687   0.240E-03
  33 F= -.23560594E+04 E0= -.23560536E+04  d E =-.117303E-01  mag=     4.8200
       N       E                     dE             d eps       ncg     rms          rms(c)
DAV:   1    -0.233456344973E+04    0.11159E-02   -0.68530E-01  5080   0.367E-01    0.429E-01
RMM:   2    -0.233456071724E+04    0.27325E-02   -0.11058E-02  4432   0.469E-02    0.251E-01
RMM:   3    -0.233456225356E+04   -0.15363E-02   -0.40685E-03  4511   0.346E-02    0.453E-01
RMM:   4    -0.233456012043E+04    0.21331E-02   -0.18759E-03  4947   0.195E-02    0.106E-01
RMM:   5    -0.233456022968E+04   -0.10925E-03   -0.47689E-04  3377   0.927E-03    0.152E-01
RMM:   6    -0.233456002723E+04    0.20245E-03   -0.21417E-04  2911   0.671E-03    0.313E-02
RMM:   7    -0.233456001931E+04    0.79184E-05   -0.18532E-05  2727   0.272E-03
  34 F= -.23560538E+04 E0= -.23560481E+04  d E =-.112651E-01  mag=     4.8220
       N       E                     dE             d eps       ncg     rms          rms(c)
DAV:   1    -0.233456410669E+04   -0.40795E-02   -0.13363E+00  5040   0.512E-01    0.580E-01
RMM:   2    -0.233455945947E+04    0.46472E-02   -0.20228E-02  4428   0.611E-02    0.347E-01
RMM:   3    -0.233456264609E+04   -0.31866E-02   -0.86837E-03  4881   0.501E-02    0.635E-01
RMM:   4    -0.233455829447E+04    0.43516E-02   -0.39340E-03  5492   0.280E-02    0.145E-01
RMM:   5    -0.233455861077E+04   -0.31631E-03   -0.11211E-03  3851   0.125E-02    0.217E-01
RMM:   6    -0.233455812515E+04    0.48562E-03   -0.43064E-04  3338   0.919E-03    0.472E-02
RMM:   7    -0.233455813066E+04   -0.55104E-05   -0.77985E-05  2863   0.436E-03
  35 F= -.23560534E+04 E0= -.23560477E+04  d E =-.114175E-01  mag=     4.8198
       N       E                     dE             d eps       ncg     rms          rms(c)
DAV:   1    -0.233457032559E+04   -0.12200E-01   -0.65519E-01  4920   0.356E-01    0.377E-01
RMM:   2    -0.233456860504E+04    0.17205E-02   -0.89423E-03  4203   0.405E-02    0.223E-01
RMM:   3    -0.233456978416E+04   -0.11791E-02   -0.32885E-03  4500   0.313E-02    0.380E-01
RMM:   4    -0.233456814868E+04    0.16355E-02   -0.15860E-03  4839   0.181E-02    0.108E-01
RMM:   5    -0.233456826201E+04   -0.11332E-03   -0.51610E-04  3351   0.935E-03    0.136E-01
RMM:   6    -0.233456803778E+04    0.22422E-03   -0.17133E-04  3038   0.677E-03    0.262E-02
RMM:   7    -0.233456804265E+04   -0.48682E-05   -0.31203E-05  2669   0.305E-03
  36 F= -.23560626E+04 E0= -.23560565E+04  d E =-.122923E-01  mag=     4.8135
       N       E                     dE             d eps       ncg     rms          rms(c)
DAV:   1    -0.233456821144E+04   -0.17365E-03   -0.12187E+00  4640   0.485E-01    0.384E-01
RMM:   2    -0.233456775360E+04    0.45784E-03   -0.76009E-03  4472   0.391E-02    0.228E-01
RMM:   3    -0.233456864282E+04   -0.88923E-03   -0.26060E-03  4588   0.248E-02    0.301E-01
RMM:   4    -0.233456747171E+04    0.11711E-02   -0.12946E-03  4471   0.161E-02    0.549E-02
RMM:   5    -0.233456748963E+04   -0.17922E-04   -0.16833E-04  3134   0.626E-03    0.640E-02
RMM:   6    -0.233456745171E+04    0.37917E-04   -0.64177E-05  2801   0.410E-03    0.265E-02
RMM:   7    -0.233456744856E+04    0.31500E-05   -0.12600E-05  2650   0.221E-03
  37 F= -.23560618E+04 E0= -.23560565E+04  d E =-.107619E-01  mag=     4.8217
       N       E                     dE             d eps       ncg     rms          rms(c)
DAV:   1    -0.233455894328E+04    0.85084E-02   -0.61906E-01  4960   0.364E-01    0.349E-01
RMM:   2    -0.233455786595E+04    0.10773E-02   -0.72848E-03  4218   0.384E-02    0.205E-01
RMM:   3    -0.233455859282E+04   -0.72688E-03   -0.24788E-03  4301   0.271E-02    0.336E-01
RMM:   4    -0.233455745164E+04    0.11412E-02   -0.11521E-03  4588   0.153E-02    0.813E-02
RMM:   5    -0.233455748898E+04   -0.37343E-04   -0.23661E-04  3049   0.679E-03    0.998E-02
RMM:   6    -0.233455739751E+04    0.91476E-04   -0.96985E-05  2714   0.475E-03    0.255E-02
RMM:   7    -0.233455739355E+04    0.39592E-05   -0.15390E-05  2632   0.230E-03
  38 F= -.23560523E+04 E0= -.23560464E+04  d E =-.119392E-01  mag=     4.8173
       N       E                     dE             d eps       ncg     rms          rms(c)
DAV:   1    -0.233456512073E+04   -0.77232E-02   -0.13107E+00  4960   0.515E-01    0.650E-01
RMM:   2    -0.233455827855E+04    0.68422E-02   -0.25844E-02  4618   0.692E-02    0.378E-01
RMM:   3    -0.233456193232E+04   -0.36538E-02   -0.97986E-03  5076   0.514E-02    0.674E-01
RMM:   4    -0.233455683311E+04    0.50992E-02   -0.41810E-03  5538   0.298E-02    0.182E-01
RMM:   5    -0.233455713510E+04   -0.30200E-03   -0.14445E-03  4169   0.149E-02    0.230E-01
RMM:   6    -0.233455651042E+04    0.62469E-03   -0.51856E-04  3649   0.105E-02    0.518E-02
RMM:   7    -0.233455652143E+04   -0.11009E-04   -0.10541E-04  2927   0.500E-03    0.573E-02
RMM:   8    -0.233455648756E+04    0.33861E-04   -0.40376E-05  2647   0.345E-03    0.166E-02
RMM:   9    -0.233455648491E+04    0.26519E-05   -0.87855E-06  2640   0.200E-03
  39 F= -.23560505E+04 E0= -.23560451E+04  d E =-.108781E-01  mag=     4.8265
       N       E                     dE             d eps       ncg     rms          rms(c)
DAV:   1    -0.233457000901E+04   -0.13521E-01   -0.63630E-01  4800   0.358E-01    0.364E-01
RMM:   2    -0.233456838715E+04    0.16219E-02   -0.79778E-03  4207   0.372E-02    0.216E-01
RMM:   3    -0.233456964697E+04   -0.12598E-02   -0.29429E-03  4379   0.303E-02    0.391E-01
RMM:   4    -0.233456798062E+04    0.16663E-02   -0.13233E-03  4648   0.165E-02    0.947E-02
RMM:   5    -0.233456807639E+04   -0.95776E-04   -0.39108E-04  3274   0.847E-03    0.123E-01
RMM:   6    -0.233456792480E+04    0.15159E-03   -0.16702E-04  3049   0.636E-03    0.337E-02
RMM:   7    -0.233456792415E+04    0.65313E-06   -0.30139E-05  2704   0.307E-03
  40 F= -.23560620E+04 E0= -.23560559E+04  d E =-.122511E-01  mag=     4.8160
       N       E                     dE             d eps       ncg     rms          rms(c)
DAV:   1    -0.233456837038E+04   -0.44558E-03   -0.12203E+00  4560   0.490E-01    0.327E-01
RMM:   2    -0.233456864907E+04   -0.27869E-03   -0.68193E-03  4017   0.367E-02    0.204E-01
RMM:   3    -0.233456963318E+04   -0.98411E-03   -0.24810E-03  4335   0.268E-02    0.357E-01
RMM:   4    -0.233456851547E+04    0.11177E-02   -0.12070E-03  4038   0.138E-02    0.497E-02
RMM:   5    -0.233456853014E+04   -0.14671E-04   -0.16948E-04  3039   0.694E-03    0.692E-02
RMM:   6    -0.233456848643E+04    0.43708E-04   -0.51706E-05  2924   0.370E-03    0.204E-02
RMM:   7    -0.233456848660E+04   -0.16333E-06   -0.16158E-05  2851   0.271E-03
  41 F= -.23560634E+04 E0= -.23560582E+04  d E =-.104951E-01  mag=     4.8282
       N       E                     dE             d eps       ncg     rms          rms(c)
DAV:   1    -0.233456806318E+04    0.42325E-03   -0.61148E-01  4400   0.339E-01    0.237E-01
RMM:   2    -0.233456836641E+04   -0.30323E-03   -0.34964E-03  4399   0.279E-02    0.189E-01
RMM:   3    -0.233456889530E+04   -0.52888E-03   -0.14801E-03  4163   0.190E-02    0.277E-01
RMM:   4    -0.233456813026E+04    0.76504E-03   -0.58628E-04  3902   0.120E-02    0.528E-02
RMM:   5    -0.233456815875E+04   -0.28494E-04   -0.15185E-04  2996   0.711E-03    0.738E-02
RMM:   6    -0.233456811365E+04    0.45099E-04   -0.34698E-05  2656   0.332E-03    0.843E-03
RMM:   7    -0.233456811370E+04   -0.48865E-07   -0.72125E-06  2540   0.166E-03
  42 F= -.23560630E+04 E0= -.23560575E+04  d E =-.109378E-01  mag=     4.8306
       N       E                     dE             d eps       ncg     rms          rms(c)
DAV:   1    -0.233456965010E+04   -0.15364E-02   -0.12013E+00  4560   0.485E-01    0.361E-01
RMM:   2    -0.233457013532E+04   -0.48522E-03   -0.64253E-03  4698   0.400E-02    0.315E-01
RMM:   3    -0.233457085784E+04   -0.72252E-03   -0.31979E-03  4844   0.254E-02    0.382E-01
RMM:   4    -0.233456947126E+04    0.13866E-02   -0.11505E-03  4254   0.164E-02    0.106E-01
RMM:   5    -0.233456954743E+04   -0.76171E-04   -0.45523E-04  3248   0.110E-02    0.132E-01
RMM:   6    -0.233456939958E+04    0.14785E-03   -0.10717E-04  2984   0.561E-03    0.215E-02
RMM:   7    -0.233456940544E+04   -0.58538E-05   -0.29763E-05  2740   0.292E-03
  43 F= -.23560635E+04 E0= -.23560576E+04  d E =-.118615E-01  mag=     4.8244
