       N       E                     dE             d eps       ncg     rms          rms(c)
DAV:   1     0.126907251235E+05    0.12691E+05   -0.82918E+05  4448   0.143E+03
DAV:   2    -0.107631650300E+04   -0.13767E+05   -0.13187E+05  5344   0.329E+02
DAV:   3    -0.247731210706E+04   -0.14010E+04   -0.13880E+04  5384   0.110E+02
DAV:   4    -0.252363708866E+04   -0.46325E+02   -0.46117E+02  6680   0.300E+01
DAV:   5    -0.252448428451E+04   -0.84720E+00   -0.84581E+00  5568   0.328E+00    0.171E+02
RMM:   6    -0.148104833641E+04    0.10434E+04   -0.19600E+03  4401   0.388E+01    0.730E+01
RMM:   7    -0.164585878575E+04   -0.16481E+03   -0.29112E+02  4991   0.141E+01    0.491E+01
RMM:   8    -0.169907913448E+04   -0.53220E+02   -0.39939E+01  5055   0.707E+00    0.367E+01
RMM:   9    -0.183538123671E+04   -0.13630E+03   -0.65112E+01  4958   0.789E+00    0.376E+01
RMM:  10    -0.192247928563E+04   -0.87098E+02   -0.41556E+01  5138   0.624E+00    0.216E+01
RMM:  11    -0.203926858820E+04   -0.11679E+03   -0.51014E+01  4781   0.572E+00    0.160E+01
RMM:  12    -0.210656401937E+04   -0.67295E+02   -0.28026E+01  5037   0.422E+00    0.133E+01
RMM:  13    -0.222125588041E+04   -0.11469E+03   -0.81602E+01  4444   0.668E+00    0.106E+01
RMM:  14    -0.229032481217E+04   -0.69069E+02   -0.60967E+01  4577   0.563E+00    0.595E+00
RMM:  15    -0.231213827101E+04   -0.21813E+02   -0.24627E+01  4760   0.378E+00    0.417E+00
RMM:  16    -0.231751068145E+04   -0.53724E+01   -0.65441E+00  5059   0.176E+00    0.262E+00
RMM:  17    -0.231875658425E+04   -0.12459E+01   -0.12257E+00  4955   0.866E-01    0.172E+00
RMM:  18    -0.231949779819E+04   -0.74121E+00   -0.54245E-01  4561   0.482E-01    0.755E-01
RMM:  19    -0.231967050551E+04   -0.17271E+00   -0.13457E-01  4730   0.301E-01    0.401E-01
RMM:  20    -0.231971688191E+04   -0.46376E-01   -0.39950E-02  4686   0.151E-01    0.198E-01
RMM:  21    -0.231973377270E+04   -0.16891E-01   -0.82120E-03  4574   0.100E-01    0.119E-01
RMM:  22    -0.231975065371E+04   -0.16881E-01   -0.60269E-03  4396   0.623E-02    0.742E-02
RMM:  23    -0.231975989869E+04   -0.92450E-02   -0.28111E-03  4461   0.475E-02    0.469E-02
RMM:  24    -0.231976631969E+04   -0.64210E-02   -0.21190E-03  4515   0.351E-02    0.346E-02
RMM:  25    -0.231976964817E+04   -0.33285E-02   -0.11823E-03  4212   0.285E-02    0.172E-02
RMM:  26    -0.231977069690E+04   -0.10487E-02   -0.46468E-04  4138   0.169E-02    0.881E-03
RMM:  27    -0.231977093844E+04   -0.24154E-03   -0.10167E-04  3702   0.110E-02    0.619E-03
RMM:  28    -0.231977109893E+04   -0.16049E-03   -0.45870E-05  3449   0.611E-03    0.351E-03
RMM:  29    -0.231977116040E+04   -0.61466E-04   -0.16249E-05  2993   0.469E-03    0.201E-03
RMM:  30    -0.231977119621E+04   -0.35807E-04   -0.10902E-05  2878   0.319E-03    0.118E-03
RMM:  31    -0.231977120376E+04   -0.75586E-05   -0.45633E-06  2682   0.272E-03
   1 F= -.23404051E+04 E0= -.23404051E+04  d E =-.234041E+04  mag=     3.0001
       N       E                     dE             d eps       ncg     rms          rms(c)
DAV:   1    -0.232013551700E+04   -0.36432E+00   -0.35790E+01  4872   0.513E+00    0.170E+00
RMM:   2    -0.232037092689E+04   -0.23541E+00   -0.25507E+00  5841   0.997E-01    0.136E+00
RMM:   3    -0.232036922253E+04    0.17044E-02   -0.18644E-01  5653   0.345E-01    0.135E+00
RMM:   4    -0.232035106354E+04    0.18159E-01   -0.30483E-02  5874   0.104E-01    0.479E-01
RMM:   5    -0.232034750983E+04    0.35537E-02   -0.12753E-02  4883   0.738E-02    0.203E-01
RMM:   6    -0.232034704326E+04    0.46656E-03   -0.25566E-03  5009   0.482E-02    0.951E-02
RMM:   7    -0.232034691341E+04    0.12985E-03   -0.64288E-04  4869   0.177E-02    0.442E-02
RMM:   8    -0.232034685611E+04    0.57300E-04   -0.13199E-04  4280   0.854E-03    0.261E-02
RMM:   9    -0.232034682147E+04    0.34646E-04   -0.66622E-05  3594   0.710E-03    0.109E-02
RMM:  10    -0.232034681178E+04    0.96873E-05   -0.25503E-05  3012   0.534E-03
   2 F= -.23409807E+04 E0= -.23409807E+04  d E =-.575624E+00  mag=     3.0000
       N       E                     dE             d eps       ncg     rms          rms(c)
DAV:   1    -0.232037526867E+04   -0.28447E-01   -0.13916E+01  4624   0.334E+00    0.107E+00
RMM:   2    -0.232045982194E+04   -0.84553E-01   -0.93762E-01  5826   0.613E-01    0.801E-01
RMM:   3    -0.232046108532E+04   -0.12634E-02   -0.78517E-02  5649   0.216E-01    0.838E-01
RMM:   4    -0.232045421136E+04    0.68740E-02   -0.12541E-02  5762   0.658E-02    0.304E-01
RMM:   5    -0.232045279407E+04    0.14173E-02   -0.49980E-03  4862   0.476E-02    0.116E-01
RMM:   6    -0.232045267521E+04    0.11886E-03   -0.91910E-04  4886   0.290E-02    0.648E-02
RMM:   7    -0.232045261619E+04    0.59022E-04   -0.21887E-04  4170   0.107E-02    0.245E-02
RMM:   8    -0.232045259451E+04    0.21674E-04   -0.47807E-05  3331   0.680E-03    0.153E-02
RMM:   9    -0.232045258285E+04    0.11663E-04   -0.30830E-05  3131   0.512E-03    0.675E-03
RMM:  10    -0.232045258056E+04    0.22941E-05   -0.10381E-05  2836   0.421E-03
   3 F= -.23410865E+04 E0= -.23410865E+04  d E =-.681399E+00  mag=     3.0000
       N       E                     dE             d eps       ncg     rms          rms(c)
DAV:   1    -0.232063905197E+04   -0.18647E+00   -0.32415E+01  4480   0.549E+00    0.178E+00
RMM:   2    -0.232086846756E+04   -0.22942E+00   -0.23927E+00  5884   0.101E+00    0.133E+00
RMM:   3    -0.232087380448E+04   -0.53369E-02   -0.22126E-01  5699   0.354E-01    0.130E+00
RMM:   4    -0.232085625076E+04    0.17554E-01   -0.27701E-02  5856   0.995E-02    0.406E-01
RMM:   5    -0.232085392350E+04    0.23273E-02   -0.98906E-03  5094   0.666E-02    0.174E-01
RMM:   6    -0.232085386925E+04    0.54250E-04   -0.23009E-03  4899   0.403E-02    0.102E-01
RMM:   7    -0.232085379883E+04    0.70414E-04   -0.49644E-04  4442   0.173E-02    0.413E-02
RMM:   8    -0.232085377654E+04    0.22290E-04   -0.97374E-05  3796   0.883E-03    0.229E-02
RMM:   9    -0.232085377243E+04    0.41114E-05   -0.40016E-05  3139   0.566E-03
   4 F= -.23414877E+04 E0= -.23414877E+04  d E =-.401219E+00  mag=     3.0000
       N       E                     dE             d eps       ncg     rms          rms(c)
DAV:   1    -0.232059597599E+04    0.25780E+00   -0.73063E+01  4416   0.828E+00    0.269E+00
RMM:   2    -0.232111404451E+04   -0.51807E+00   -0.54275E+00  5900   0.155E+00    0.197E+00
RMM:   3    -0.232112831799E+04   -0.14273E-01   -0.53291E-01  5683   0.546E-01    0.187E+00
RMM:   4    -0.232109197812E+04    0.36340E-01   -0.61352E-02  5967   0.151E-01    0.612E-01
RMM:   5    -0.232108718142E+04    0.47967E-02   -0.22898E-02  5151   0.994E-02    0.291E-01
RMM:   6    -0.232108686571E+04    0.31571E-03   -0.57915E-03  5017   0.589E-02    0.166E-01
RMM:   7    -0.232108667772E+04    0.18799E-03   -0.12172E-03  5073   0.285E-02    0.628E-02
RMM:   8    -0.232108665121E+04    0.26504E-04   -0.23049E-04  4709   0.116E-02    0.350E-02
RMM:   9    -0.232108665640E+04   -0.51841E-05   -0.86223E-05  3788   0.823E-03
   5 F= -.23417202E+04 E0= -.23417202E+04  d E =-.633720E+00  mag=     3.0000
       N       E                     dE             d eps       ncg     rms          rms(c)
DAV:   1    -0.232111862685E+04   -0.31976E-01   -0.36779E+01  4464   0.617E+00    0.221E+00
RMM:   2    -0.232131221260E+04   -0.19359E+00   -0.22197E+00  5810   0.110E+00    0.135E+00
RMM:   3    -0.232132220167E+04   -0.99891E-02   -0.21832E-01  5508   0.394E-01    0.161E+00
RMM:   4    -0.232129337455E+04    0.28827E-01   -0.37230E-02  5621   0.125E-01    0.496E-01
RMM:   5    -0.232128946416E+04    0.39104E-02   -0.15477E-02  5097   0.927E-02    0.243E-01
RMM:   6    -0.232128834770E+04    0.11165E-02   -0.49674E-03  5230   0.530E-02    0.102E-01
RMM:   7    -0.232128803151E+04    0.31620E-03   -0.76654E-04  5039   0.278E-02    0.510E-02
RMM:   8    -0.232128786873E+04    0.16278E-03   -0.25610E-04  4588   0.123E-02    0.275E-02
RMM:   9    -0.232128780830E+04    0.60430E-04   -0.11029E-04  4227   0.107E-02    0.133E-02
RMM:  10    -0.232128779781E+04    0.10486E-04   -0.41914E-05  3512   0.588E-03    0.871E-03
RMM:  11    -0.232128779949E+04   -0.16792E-05   -0.21576E-05  3000   0.545E-03
   6 F= -.23419201E+04 E0= -.23419201E+04  d E =-.199891E+00  mag=     3.0000
       N       E                     dE             d eps       ncg     rms          rms(c)
DAV:   1    -0.232128780151E+04   -0.36946E-05   -0.18296E-02  5464   0.136E-01    0.495E-02
RMM:   2    -0.232128789939E+04   -0.97883E-04   -0.11156E-03  5672   0.259E-02    0.300E-02
RMM:   3    -0.232128790548E+04   -0.60901E-05   -0.10658E-04  3056   0.104E-02    0.367E-02
RMM:   4    -0.232128789150E+04    0.13979E-04   -0.19889E-05  2846   0.417E-03    0.112E-02
RMM:   5    -0.232128789059E+04    0.91396E-06   -0.10029E-05  2823   0.286E-03
   7 F= -.23419202E+04 E0= -.23419202E+04  d E =-.200017E+00  mag=     3.0000
       N       E                     dE             d eps       ncg     rms          rms(c)
DAV:   1    -0.232134231818E+04   -0.54427E-01   -0.84373E+00  4480   0.292E+00    0.856E-01
RMM:   2    -0.232138523135E+04   -0.42913E-01   -0.46703E-01  5823   0.493E-01    0.603E-01
RMM:   3    -0.232138633827E+04   -0.11069E-02   -0.41475E-02  5407   0.159E-01    0.623E-01
RMM:   4    -0.232138251182E+04    0.38264E-02   -0.62384E-03  5441   0.471E-02    0.222E-01
RMM:   5    -0.232138210144E+04    0.41038E-03   -0.21903E-03  4852   0.339E-02    0.106E-01
RMM:   6    -0.232138202620E+04    0.75247E-04   -0.58925E-04  4722   0.217E-02    0.335E-02
RMM:   7    -0.232138202234E+04    0.38526E-05   -0.86392E-05  3698   0.106E-02
   8 F= -.23420148E+04 E0= -.23420148E+04  d E =-.946125E-01  mag=     3.0000
       N       E                     dE             d eps       ncg     rms          rms(c)
DAV:   1    -0.232136884857E+04    0.13178E-01   -0.10751E+01  4464   0.331E+00    0.967E-01
RMM:   2    -0.232142351488E+04   -0.54666E-01   -0.59389E-01  5826   0.557E-01    0.679E-01
RMM:   3    -0.232142487491E+04   -0.13600E-02   -0.52721E-02  5411   0.177E-01    0.700E-01
RMM:   4    -0.232142005314E+04    0.48218E-02   -0.79566E-03  5477   0.527E-02    0.250E-01
RMM:   5    -0.232141954580E+04    0.50734E-03   -0.27535E-03  4889   0.377E-02    0.122E-01
RMM:   6    -0.232141944687E+04    0.98927E-04   -0.79256E-04  4824   0.248E-02    0.381E-02
RMM:   7    -0.232141944157E+04    0.53036E-05   -0.11526E-04  3896   0.121E-02    0.179E-02
RMM:   8    -0.232141943772E+04    0.38496E-05   -0.19600E-05  2911   0.508E-03
   9 F= -.23420527E+04 E0= -.23420527E+04  d E =-.132508E+00  mag=     3.0000
       N       E                     dE             d eps       ncg     rms          rms(c)
DAV:   1    -0.232142766183E+04   -0.82203E-02   -0.14978E+01  4416   0.392E+00    0.106E+00
RMM:   2    -0.232150017392E+04   -0.72512E-01   -0.79188E-01  5709   0.680E-01    0.646E-01
RMM:   3    -0.232150214805E+04   -0.19741E-02   -0.67205E-02  5508   0.222E-01    0.634E-01
RMM:   4    -0.232149836662E+04    0.37814E-02   -0.91959E-03  5459   0.599E-02    0.318E-01
RMM:   5    -0.232149709256E+04    0.12741E-02   -0.38205E-03  4915   0.467E-02    0.157E-01
RMM:   6    -0.232149675683E+04    0.33572E-03   -0.16840E-03  5018   0.325E-02    0.568E-02
RMM:   7    -0.232149670163E+04    0.55207E-04   -0.19934E-04  4447   0.162E-02    0.272E-02
RMM:   8    -0.232149667476E+04    0.26868E-04   -0.61177E-05  3762   0.680E-03    0.169E-02
RMM:   9    -0.232149666556E+04    0.91976E-05   -0.32034E-05  3200   0.583E-03
  10 F= -.23421301E+04 E0= -.23421301E+04  d E =-.773993E-01  mag=     3.0000
       N       E                     dE             d eps       ncg     rms          rms(c)
DAV:   1    -0.232149164301E+04    0.50318E-02   -0.29618E+00  4528   0.174E+00    0.470E-01
RMM:   2    -0.232150584459E+04   -0.14202E-01   -0.15552E-01  5716   0.302E-01    0.288E-01
RMM:   3    -0.232150613933E+04   -0.29473E-03   -0.12644E-02  5498   0.955E-02    0.282E-01
RMM:   4    -0.232150537045E+04    0.76887E-03   -0.18178E-03  5260   0.262E-02    0.140E-01
RMM:   5    -0.232150510324E+04    0.26722E-03   -0.75995E-04  4798   0.211E-02    0.658E-02
RMM:   6    -0.232150503923E+04    0.64011E-04   -0.31696E-04  4616   0.147E-02    0.234E-02
RMM:   7    -0.232150502862E+04    0.10610E-04   -0.40026E-05  3305   0.740E-03    0.116E-02
RMM:   8    -0.232150502348E+04    0.51360E-05   -0.14363E-05  2872   0.403E-03
  11 F= -.23421385E+04 E0= -.23421385E+04  d E =-.857998E-01  mag=     3.0000
       N       E                     dE             d eps       ncg     rms          rms(c)
DAV:   1    -0.232150180971E+04    0.32189E-02   -0.16813E+01  4416   0.424E+00    0.110E+00
RMM:   2    -0.232156759225E+04   -0.65783E-01   -0.74577E-01  5669   0.716E-01    0.565E-01
RMM:   3    -0.232156799208E+04   -0.39983E-03   -0.60421E-02  5289   0.229E-01    0.560E-01
RMM:   4    -0.232156521738E+04    0.27747E-02   -0.88812E-03  5587   0.623E-02    0.337E-01
RMM:   5    -0.232156344778E+04    0.17696E-02   -0.47042E-03  5006   0.535E-02    0.129E-01
RMM:   6    -0.232156325646E+04    0.19132E-03   -0.13344E-03  4936   0.325E-02    0.477E-02
RMM:   7    -0.232156321753E+04    0.38934E-04   -0.18043E-04  4044   0.107E-02    0.266E-02
RMM:   8    -0.232156319369E+04    0.23845E-04   -0.48018E-05  3527   0.794E-03    0.153E-02
RMM:   9    -0.232156318444E+04    0.92464E-05   -0.25507E-05  3082   0.521E-03
  12 F= -.23421960E+04 E0= -.23421960E+04  d E =-.575163E-01  mag=     3.0000
       N       E                     dE             d eps       ncg     rms          rms(c)
DAV:   1    -0.232156277641E+04    0.41728E-03   -0.54783E-01  4824   0.765E-01    0.198E-01
RMM:   2    -0.232156490071E+04   -0.21243E-02   -0.24263E-02  5723   0.130E-01    0.101E-01
RMM:   3    -0.232156490623E+04   -0.55127E-05   -0.19670E-03  5079   0.426E-02    0.102E-01
RMM:   4    -0.232156481257E+04    0.93662E-04   -0.29735E-04  4214   0.114E-02    0.611E-02
RMM:   5    -0.232156474766E+04    0.64902E-04   -0.15541E-04  4106   0.107E-02    0.209E-02
RMM:   6    -0.232156474243E+04    0.52375E-05   -0.41260E-05  3154   0.733E-03
  13 F= -.23421975E+04 E0= -.23421975E+04  d E =-.589541E-01  mag=     3.0000
       N       E                     dE             d eps       ncg     rms          rms(c)
DAV:   1    -0.232155230382E+04    0.12444E-01   -0.12247E+01  4416   0.363E+00    0.864E-01
RMM:   2    -0.232161077453E+04   -0.58471E-01   -0.64112E-01  5906   0.647E-01    0.434E-01
RMM:   3    -0.232161175054E+04   -0.97601E-03   -0.47066E-02  5205   0.177E-01    0.392E-01
RMM:   4    -0.232161113438E+04    0.61616E-03   -0.63651E-03  5581   0.495E-02    0.306E-01
RMM:   5    -0.232160988845E+04    0.12459E-02   -0.32052E-03  4900   0.425E-02    0.809E-02
RMM:   6    -0.232160990414E+04   -0.15694E-04   -0.45632E-04  4628   0.232E-02    0.301E-02
RMM:   7    -0.232160989916E+04    0.49788E-05   -0.68805E-05  3622   0.696E-03
  14 F= -.23422428E+04 E0= -.23422428E+04  d E =-.453614E-01  mag=     3.0000
       N       E                     dE             d eps       ncg     rms          rms(c)
DAV:   1    -0.232160220764E+04    0.76965E-02   -0.26577E+00  4512   0.169E+00    0.404E-01
RMM:   2    -0.232161495733E+04   -0.12750E-01   -0.13961E-01  5900   0.302E-01    0.207E-01
RMM:   3    -0.232161521181E+04   -0.25448E-03   -0.10323E-02  5201   0.832E-02    0.202E-01
RMM:   4    -0.232161497306E+04    0.23875E-03   -0.13626E-03  5211   0.229E-02    0.134E-01
RMM:   5    -0.232161472927E+04    0.24379E-03   -0.72383E-04  4797   0.205E-02    0.377E-02
RMM:   6    -0.232161473149E+04   -0.22272E-05   -0.94568E-05  3822   0.116E-02
  15 F= -.23422478E+04 E0= -.23422478E+04  d E =-.502824E-01  mag=     3.0000
       N       E                     dE             d eps       ncg     rms          rms(c)
DAV:   1    -0.232154774447E+04    0.66985E-01   -0.15102E+01  4416   0.397E+00    0.947E-01
RMM:   2    -0.232164554057E+04   -0.97796E-01   -0.10471E+00  6064   0.769E-01    0.500E-01
RMM:   3    -0.232164825894E+04   -0.27184E-02   -0.82498E-02  5556   0.197E-01    0.307E-01
RMM:   4    -0.232164760539E+04    0.65355E-03   -0.85645E-03  4666   0.546E-02    0.239E-01
RMM:   5    -0.232164768916E+04   -0.83761E-04   -0.35900E-03  5233   0.437E-02    0.254E-01
RMM:   6    -0.232164696331E+04    0.72585E-03   -0.90902E-04  5429   0.223E-02    0.388E-02
RMM:   7    -0.232164694778E+04    0.15524E-04   -0.10480E-04  3480   0.103E-02    0.229E-02
RMM:   8    -0.232164693639E+04    0.11396E-04   -0.39576E-05  3138   0.527E-03    0.113E-02
RMM:   9    -0.232164693312E+04    0.32704E-05   -0.11075E-05  2851   0.414E-03
  16 F= -.23422805E+04 E0= -.23422805E+04  d E =-.327024E-01  mag=     3.0000
       N       E                     dE             d eps       ncg     rms          rms(c)
DAV:   1    -0.232164533806E+04    0.15983E-02   -0.32018E-01  4744   0.579E-01    0.138E-01
RMM:   2    -0.232164740879E+04   -0.20707E-02   -0.22232E-02  6087   0.114E-01    0.706E-02
RMM:   3    -0.232164746118E+04   -0.52396E-04   -0.17419E-03  4778   0.291E-02    0.443E-02
RMM:   4    -0.232164743822E+04    0.22965E-04   -0.20678E-04  3842   0.944E-03    0.220E-02
RMM:   5    -0.232164743675E+04    0.14688E-05   -0.37021E-05  3074   0.653E-03
  17 F= -.23422810E+04 E0= -.23422810E+04  d E =-.332698E-01  mag=     3.0000
       N       E                     dE             d eps       ncg     rms          rms(c)
DAV:   1    -0.232155914007E+04    0.88298E-01   -0.11415E+01  4416   0.354E+00    0.960E-01
RMM:   2    -0.232166635422E+04   -0.10721E+00   -0.11334E+00  6047   0.711E-01    0.537E-01
RMM:   3    -0.232167238295E+04   -0.60287E-02   -0.10355E-01  5665   0.204E-01    0.455E-01
RMM:   4    -0.232167089154E+04    0.14914E-02   -0.10795E-02  5649   0.529E-02    0.281E-01
RMM:   5    -0.232166991559E+04    0.97595E-03   -0.26733E-03  5170   0.350E-02    0.133E-01
RMM:   6    -0.232166970233E+04    0.21326E-03   -0.11826E-03  5397   0.253E-02    0.434E-02
RMM:   7    -0.232166967823E+04    0.24095E-04   -0.10510E-04  4113   0.125E-02    0.232E-02
RMM:   8    -0.232166966550E+04    0.12729E-04   -0.34838E-05  3006   0.497E-03    0.108E-02
RMM:   9    -0.232166966130E+04    0.42029E-05   -0.13037E-05  2859   0.405E-03
  18 F= -.23423042E+04 E0= -.23423042E+04  d E =-.231478E-01  mag=     3.0000
       N       E                     dE             d eps       ncg     rms          rms(c)
DAV:   1    -0.232166657201E+04    0.30935E-02   -0.36014E-01  4736   0.628E-01    0.170E-01
RMM:   2    -0.232166995760E+04   -0.33856E-02   -0.35826E-02  6117   0.128E-01    0.935E-02
RMM:   3    -0.232167013380E+04   -0.17620E-03   -0.32036E-03  5267   0.359E-02    0.782E-02
RMM:   4    -0.232167009014E+04    0.43656E-04   -0.34548E-04  3259   0.982E-03    0.502E-02
RMM:   5    -0.232167005394E+04    0.36198E-04   -0.94050E-05  3487   0.774E-03    0.211E-02
RMM:   6    -0.232167004928E+04    0.46683E-05   -0.37854E-05  3181   0.618E-03
  19 F= -.23423047E+04 E0= -.23423047E+04  d E =-.236830E-01  mag=     3.0000
       N       E                     dE             d eps       ncg     rms          rms(c)
DAV:   1    -0.232155862390E+04    0.11143E+00   -0.10463E+01  4448   0.329E+00    0.906E-01
RMM:   2    -0.232168772106E+04   -0.12910E+00   -0.13354E+00  6019   0.662E-01    0.630E-01
RMM:   3    -0.232169644724E+04   -0.87262E-02   -0.13102E-01  5665   0.212E-01    0.526E-01
RMM:   4    -0.232169403248E+04    0.24148E-02   -0.12777E-02  5654   0.498E-02    0.248E-01
RMM:   5    -0.232169325357E+04    0.77891E-03   -0.18741E-03  4901   0.285E-02    0.136E-01
RMM:   6    -0.232169304862E+04    0.20495E-03   -0.12970E-03  5244   0.242E-02    0.549E-02
RMM:   7    -0.232169302651E+04    0.22110E-04   -0.13899E-04  4219   0.139E-02    0.245E-02
RMM:   8    -0.232169301614E+04    0.10369E-04   -0.37015E-05  2978   0.488E-03    0.107E-02
RMM:   9    -0.232169301613E+04    0.26630E-08   -0.16164E-05  2881   0.377E-03
  20 F= -.23423289E+04 E0= -.23423289E+04  d E =-.241569E-01  mag=     3.0000
       N       E                     dE             d eps       ncg     rms          rms(c)
DAV:   1    -0.232153403497E+04    0.15898E+00   -0.13007E+01  4432   0.367E+00    0.101E+00
RMM:   2    -0.232169379404E+04   -0.15976E+00   -0.16525E+00  6018   0.736E-01    0.703E-01
RMM:   3    -0.232170518151E+04   -0.11387E-01   -0.16686E-01  5641   0.243E-01    0.598E-01
RMM:   4    -0.232170208669E+04    0.30948E-02   -0.16010E-02  5678   0.557E-02    0.277E-01
RMM:   5    -0.232170111137E+04    0.97531E-03   -0.23734E-03  4906   0.318E-02    0.155E-01
RMM:   6    -0.232170083475E+04    0.27662E-03   -0.16660E-03  5228   0.270E-02    0.656E-02
RMM:   7    -0.232170080073E+04    0.34022E-04   -0.19783E-04  4458   0.163E-02    0.281E-02
RMM:   8    -0.232170078707E+04    0.13659E-04   -0.49368E-05  3099   0.550E-03    0.128E-02
RMM:   9    -0.232170078667E+04    0.40412E-06   -0.22059E-05  2901   0.440E-03
  21 F= -.23423377E+04 E0= -.23423377E+04  d E =-.329716E-01  mag=     3.0000
       N       E                     dE             d eps       ncg     rms          rms(c)
DAV:   1    -0.232161908008E+04    0.81707E-01   -0.78062E+00  4448   0.280E+00    0.809E-01
RMM:   2    -0.232171760795E+04   -0.98528E-01   -0.10017E+00  5956   0.553E-01    0.687E-01
RMM:   3    -0.232172272142E+04   -0.51135E-02   -0.10008E-01  5626   0.191E-01    0.504E-01
RMM:   4    -0.232172028653E+04    0.24349E-02   -0.99126E-03  5561   0.443E-02    0.203E-01
RMM:   5    -0.232171969648E+04    0.59005E-03   -0.13602E-03  4908   0.253E-02    0.114E-01
RMM:   6    -0.232171957999E+04    0.11650E-03   -0.98513E-04  5210   0.218E-02    0.417E-02
RMM:   7    -0.232171956876E+04    0.11221E-04   -0.11201E-04  3847   0.112E-02    0.224E-02
RMM:   8    -0.232171956011E+04    0.86560E-05   -0.28220E-05  2894   0.456E-03
  22 F= -.23423569E+04 E0= -.23423569E+04  d E =-.192291E-01  mag=     3.0000
       N       E                     dE             d eps       ncg     rms          rms(c)
DAV:   1    -0.232158862321E+04    0.13095E+00   -0.10838E+01  4448   0.330E+00    0.954E-01
RMM:   2    -0.232172579558E+04   -0.13717E+00   -0.13937E+00  5940   0.651E-01    0.821E-01
RMM:   3    -0.232173295568E+04   -0.71601E-02   -0.14144E-01  5651   0.226E-01    0.605E-01
RMM:   4    -0.232172943389E+04    0.35218E-02   -0.13620E-02  5558   0.520E-02    0.239E-01
RMM:   5    -0.232172863501E+04    0.79888E-03   -0.19499E-03  4942   0.298E-02    0.137E-01
RMM:   6    -0.232172845437E+04    0.18064E-03   -0.13723E-03  5230   0.253E-02    0.508E-02
RMM:   7    -0.232172843618E+04    0.18186E-04   -0.15903E-04  4304   0.135E-02    0.269E-02
RMM:   8    -0.232172842291E+04    0.13266E-04   -0.39103E-05  2949   0.500E-03    0.118E-02
RMM:   9    -0.232172842159E+04    0.13216E-05   -0.16655E-05  2894   0.377E-03
  23 F= -.23423660E+04 E0= -.23423660E+04  d E =-.283522E-01  mag=     3.0000
       N       E                     dE             d eps       ncg     rms          rms(c)
DAV:   1    -0.232166356990E+04    0.64853E-01   -0.62213E+00  4448   0.248E+00    0.751E-01
RMM:   2    -0.232174837484E+04   -0.84805E-01   -0.84993E-01  5933   0.496E-01    0.753E-01
RMM:   3    -0.232174996919E+04   -0.15944E-02   -0.81603E-02  5656   0.163E-01    0.441E-01
RMM:   4    -0.232174819078E+04    0.17784E-02   -0.81130E-03  5276   0.385E-02    0.182E-01
RMM:   5    -0.232174771124E+04    0.47954E-03   -0.10157E-03  5020   0.233E-02    0.107E-01
RMM:   6    -0.232174763004E+04    0.81197E-04   -0.73783E-04  4836   0.200E-02    0.313E-02
RMM:   7    -0.232174762204E+04    0.80005E-05   -0.89731E-05  3507   0.986E-03
  24 F= -.23423853E+04 E0= -.23423853E+04  d E =-.192769E-01  mag=     3.0000
       N       E                     dE             d eps       ncg     rms          rms(c)
DAV:   1    -0.232148146198E+04    0.26617E+00   -0.20017E+01  4448   0.445E+00    0.135E+00
RMM:   2    -0.232175578271E+04   -0.27432E+00   -0.27628E+00  5961   0.894E-01    0.131E+00
RMM:   3    -0.232176337091E+04   -0.75882E-02   -0.27086E-01  5685   0.288E-01    0.815E-01
RMM:   4    -0.232175725924E+04    0.61117E-02   -0.25854E-02  5336   0.683E-02    0.329E-01
RMM:   5    -0.232175574498E+04    0.15143E-02   -0.36353E-03  5057   0.416E-02    0.195E-01
RMM:   6    -0.232175543717E+04    0.30781E-03   -0.23787E-03  4898   0.353E-02    0.580E-02
RMM:   7    -0.232175541214E+04    0.25031E-04   -0.32524E-04  4583   0.182E-02    0.369E-02
RMM:   8    -0.232175537934E+04    0.32797E-04   -0.86446E-05  3283   0.672E-03    0.179E-02
RMM:   9    -0.232175537296E+04    0.63772E-05   -0.28189E-05  2980   0.461E-03
  25 F= -.23423927E+04 E0= -.23423927E+04  d E =-.267056E-01  mag=     3.0000
       N       E                     dE             d eps       ncg     rms          rms(c)
DAV:   1    -0.232173478684E+04    0.20593E-01   -0.16144E+00  4576   0.126E+00    0.385E-01
RMM:   2    -0.232175709337E+04   -0.22307E-01   -0.22266E-01  6020   0.257E-01    0.400E-01
RMM:   3    -0.232175722527E+04   -0.13190E-03   -0.21032E-02  5643   0.789E-02    0.220E-01
RMM:   4    -0.232175680450E+04    0.42077E-03   -0.21828E-03  4848   0.204E-02    0.939E-02
RMM:   5    -0.232175667327E+04    0.13122E-03   -0.27355E-04  4269   0.121E-02    0.555E-02
RMM:   6    -0.232175665174E+04    0.21535E-04   -0.23698E-04  4230   0.122E-02    0.169E-02
RMM:   7    -0.232175664919E+04    0.25461E-05   -0.26626E-05  2910   0.607E-03
  26 F= -.23423942E+04 E0= -.23423942E+04  d E =-.281341E-01  mag=     3.0000
       N       E                     dE             d eps       ncg     rms          rms(c)
DAV:   1    -0.232169412485E+04    0.62527E-01   -0.56298E+00  4448   0.235E+00    0.704E-01
RMM:   2    -0.232177337960E+04   -0.79255E-01   -0.79187E-01  5992   0.474E-01    0.718E-01
RMM:   3    -0.232177480737E+04   -0.14278E-02   -0.74484E-02  5686   0.150E-01    0.401E-01
RMM:   4    -0.232177329555E+04    0.15118E-02   -0.72700E-03  5239   0.350E-02    0.174E-01
RMM:   5    -0.232177284095E+04    0.45461E-03   -0.90809E-04  4913   0.212E-02    0.102E-01
RMM:   6    -0.232177275974E+04    0.81208E-04   -0.72180E-04  4699   0.202E-02    0.292E-02
RMM:   7    -0.232177275211E+04    0.76324E-05   -0.77908E-05  3328   0.911E-03
  27 F= -.23424102E+04 E0= -.23424102E+04  d E =-.159845E-01  mag=     3.0000
       N       E                     dE             d eps       ncg     rms          rms(c)
DAV:   1    -0.232130496281E+04    0.46780E+00   -0.33401E+01  4456   0.572E+00    0.173E+00
RMM:   2    -0.232178503612E+04   -0.48007E+00   -0.48184E+00  6040   0.120E+00    0.173E+00
RMM:   3    -0.232179627701E+04   -0.11241E-01   -0.45063E-01  5810   0.351E-01    0.104E+00
RMM:   4    -0.232178606383E+04    0.10213E-01   -0.42239E-02  5364   0.848E-02    0.432E-01
RMM:   5    -0.232178356621E+04    0.24976E-02   -0.63437E-03  4920   0.507E-02    0.264E-01
RMM:   6    -0.232178291273E+04    0.65347E-03   -0.46042E-03  4729   0.508E-02    0.779E-02
RMM:   7    -0.232178287475E+04    0.37984E-04   -0.55864E-04  4880   0.238E-02    0.439E-02
RMM:   8    -0.232178281543E+04    0.59320E-04   -0.12059E-04  3890   0.765E-03    0.200E-02
RMM:   9    -0.232178280349E+04    0.11941E-04   -0.45568E-05  3033   0.592E-03    0.107E-02
RMM:  10    -0.232178280012E+04    0.33650E-05   -0.12912E-05  2854   0.411E-03
  28 F= -.23424192E+04 E0= -.23424192E+04  d E =-.250305E-01  mag=     3.0000
       N       E                     dE             d eps       ncg     rms          rms(c)
DAV:   1    -0.232174526758E+04    0.37536E-01   -0.27799E+00  4448   0.165E+00    0.497E-01
RMM:   2    -0.232178478382E+04   -0.39516E-01   -0.39359E-01  6063   0.337E-01    0.520E-01
RMM:   3    -0.232178517063E+04   -0.38681E-03   -0.36873E-02  5739   0.103E-01    0.280E-01
RMM:   4    -0.232178448659E+04    0.68404E-03   -0.37413E-03  5106   0.254E-02    0.124E-01
RMM:   5    -0.232178424638E+04    0.24021E-03   -0.46553E-04  4523   0.153E-02    0.719E-02
RMM:   6    -0.232178421071E+04    0.35666E-04   -0.39579E-04  4470   0.152E-02    0.215E-02
RMM:   7    -0.232178420597E+04    0.47363E-05   -0.42329E-05  2998   0.713E-03
  29 F= -.23424210E+04 E0= -.23424210E+04  d E =-.268293E-01  mag=     3.0000
       N       E                     dE             d eps       ncg     rms          rms(c)
DAV:   1    -0.232171179300E+04    0.72418E-01   -0.69583E+00  4448   0.264E+00    0.781E-01
RMM:   2    -0.232179950717E+04   -0.87714E-01   -0.88647E-01  5923   0.521E-01    0.696E-01
RMM:   3    -0.232180269628E+04   -0.31891E-02   -0.82515E-02  5646   0.173E-01    0.477E-01
RMM:   4    -0.232180035909E+04    0.23372E-02   -0.81690E-03  5391   0.411E-02    0.193E-01
RMM:   5    -0.232179980616E+04    0.55294E-03   -0.13138E-03  4942   0.255E-02    0.100E-01
RMM:   6    -0.232179972220E+04    0.83955E-04   -0.76195E-04  4943   0.206E-02    0.327E-02
RMM:   7    -0.232179971310E+04    0.90967E-05   -0.10055E-04  3635   0.102E-02    0.198E-02
RMM:   8    -0.232179970158E+04    0.11526E-04   -0.26627E-05  2878   0.459E-03    0.917E-03
RMM:   9    -0.232179969923E+04    0.23524E-05   -0.11518E-05  2873   0.317E-03
  30 F= -.23424357E+04 E0= -.23424357E+04  d E =-.147403E-01  mag=     3.0000
       N       E                     dE             d eps       ncg     rms          rms(c)
DAV:   1    -0.232177680311E+04    0.22898E-01   -0.20443E+00  4464   0.144E+00    0.423E-01
RMM:   2    -0.232180254198E+04   -0.25739E-01   -0.25987E-01  5906   0.283E-01    0.379E-01
RMM:   3    -0.232180341102E+04   -0.86904E-03   -0.23889E-02  5589   0.937E-02    0.256E-01
RMM:   4    -0.232180274821E+04    0.66281E-03   -0.24522E-03  5006   0.225E-02    0.105E-01
RMM:   5    -0.232180257853E+04    0.16968E-03   -0.36968E-04  4471   0.142E-02    0.536E-02
RMM:   6    -0.232180255536E+04    0.23173E-04   -0.22508E-04  4340   0.121E-02    0.171E-02
RMM:   7    -0.232180255305E+04    0.23089E-05   -0.30938E-05  2917   0.644E-03
  31 F= -.23424381E+04 E0= -.23424381E+04  d E =-.171090E-01  mag=     3.0000
       N       E                     dE             d eps       ncg     rms          rms(c)
DAV:   1    -0.232178775843E+04    0.14797E-01   -0.26411E+00  4416   0.170E+00    0.466E-01
RMM:   2    -0.232181207244E+04   -0.24314E-01   -0.25337E-01  5795   0.313E-01    0.335E-01
RMM:   3    -0.232181329818E+04   -0.12257E-02   -0.23165E-02  5502   0.106E-01    0.297E-01
RMM:   4    -0.232181243106E+04    0.86712E-03   -0.25889E-03  5244   0.273E-02    0.126E-01
RMM:   5    -0.232181222347E+04    0.20760E-03   -0.66617E-04  5002   0.180E-02    0.613E-02
RMM:   6    -0.232181218538E+04    0.38087E-04   -0.27456E-04  4692   0.133E-02    0.229E-02
RMM:   7    -0.232181217883E+04    0.65533E-05   -0.30776E-05  2990   0.706E-03
  32 F= -.23424471E+04 E0= -.23424471E+04  d E =-.903747E-02  mag=     3.0000
       N       E                     dE             d eps       ncg     rms          rms(c)
DAV:   1    -0.232180357284E+04    0.86125E-02   -0.10899E+00  4512   0.109E+00    0.300E-01
RMM:   2    -0.232181364440E+04   -0.10072E-01   -0.10483E-01  5803   0.202E-01    0.218E-01
RMM:   3    -0.232181412195E+04   -0.47755E-03   -0.94927E-03  5488   0.654E-02    0.191E-01
RMM:   4    -0.232181376565E+04    0.35630E-03   -0.10791E-03  4695   0.176E-02    0.808E-02
RMM:   5    -0.232181367521E+04    0.90443E-04   -0.27606E-04  4377   0.119E-02    0.386E-02
RMM:   6    -0.232181365978E+04    0.15435E-04   -0.10977E-04  4053   0.950E-03    0.150E-02
RMM:   7    -0.232181365733E+04    0.24439E-05   -0.15353E-05  2878   0.553E-03
  33 F= -.23424482E+04 E0= -.23424482E+04  d E =-.101134E-01  mag=     3.0000
       N       E                     dE             d eps       ncg     rms          rms(c)
DAV:   1    -0.232179885875E+04    0.14801E-01   -0.29284E+00  4448   0.182E+00    0.455E-01
RMM:   2    -0.232182003180E+04   -0.21173E-01   -0.22201E-01  5766   0.320E-01    0.281E-01
RMM:   3    -0.232182107856E+04   -0.10468E-02   -0.19035E-02  5429   0.105E-01    0.273E-01
RMM:   4    -0.232182035867E+04    0.71989E-03   -0.21785E-03  5273   0.267E-02    0.129E-01
RMM:   5    -0.232182012783E+04    0.23085E-03   -0.71725E-04  4978   0.194E-02    0.550E-02
RMM:   6    -0.232182010191E+04    0.25913E-04   -0.24879E-04  4660   0.133E-02    0.199E-02
RMM:   7    -0.232182009712E+04    0.47908E-05   -0.26523E-05  2970   0.596E-03
  34 F= -.23424543E+04 E0= -.23424543E+04  d E =-.609429E-02  mag=     3.0000
       N       E                     dE             d eps       ncg     rms          rms(c)
DAV:   1    -0.232180971335E+04    0.10389E-01   -0.15805E+00  4448   0.134E+00    0.335E-01
RMM:   2    -0.232182119699E+04   -0.11484E-01   -0.12025E-01  5763   0.235E-01    0.212E-01
RMM:   3    -0.232182173357E+04   -0.53658E-03   -0.10210E-02  5401   0.752E-02    0.205E-01
RMM:   4    -0.232182132515E+04    0.40842E-03   -0.11848E-03  4978   0.197E-02    0.946E-02
RMM:   5    -0.232182119634E+04    0.12882E-03   -0.39254E-04  4592   0.146E-02    0.400E-02
RMM:   6    -0.232182118159E+04    0.14744E-04   -0.13837E-04  4277   0.105E-02    0.151E-02
RMM:   7    -0.232182117836E+04    0.32355E-05   -0.16522E-05  2910   0.522E-03
  35 F= -.23424551E+04 E0= -.23424551E+04  d E =-.690048E-02  mag=     3.0000
       N       E                     dE             d eps       ncg     rms          rms(c)
DAV:   1    -0.232181415617E+04    0.70254E-02   -0.21742E+00  4448   0.155E+00    0.332E-01
RMM:   2    -0.232182814954E+04   -0.13993E-01   -0.14772E-01  5760   0.264E-01    0.219E-01
RMM:   3    -0.232182881158E+04   -0.66204E-03   -0.12719E-02  5326   0.856E-02    0.198E-01
RMM:   4    -0.232182849105E+04    0.32053E-03   -0.14038E-03  5092   0.209E-02    0.114E-01
RMM:   5    -0.232182830668E+04    0.18437E-03   -0.57892E-04  4704   0.172E-02    0.418E-02
RMM:   6    -0.232182830196E+04    0.47196E-05   -0.14249E-04  4233   0.115E-02    0.159E-02
RMM:   7    -0.232182829910E+04    0.28601E-05   -0.16276E-05  2904   0.443E-03
  36 F= -.23424621E+04 E0= -.23424621E+04  d E =-.694213E-02  mag=     3.0000
       N       E                     dE             d eps       ncg     rms          rms(c)
DAV:   1    -0.232179965642E+04    0.28646E-01   -0.50491E+00  4448   0.236E+00    0.506E-01
RMM:   2    -0.232183213553E+04   -0.32479E-01   -0.34304E-01  5736   0.403E-01    0.331E-01
RMM:   3    -0.232183368774E+04   -0.15522E-02   -0.29825E-02  5365   0.131E-01    0.301E-01
RMM:   4    -0.232183295190E+04    0.73584E-03   -0.32423E-03  5462   0.316E-02    0.175E-01
RMM:   5    -0.232183252620E+04    0.42570E-03   -0.13007E-03  4873   0.255E-02    0.673E-02
RMM:   6    -0.232183250411E+04    0.22091E-04   -0.36152E-04  4695   0.170E-02    0.248E-02
RMM:   7    -0.232183249641E+04    0.77030E-05   -0.37722E-05  3211   0.598E-03
  37 F= -.23424660E+04 E0= -.23424660E+04  d E =-.108380E-01  mag=     3.0000
       N       E                     dE             d eps       ncg     rms          rms(c)
DAV:   1    -0.232182055579E+04    0.11948E-01   -0.33325E+00  4448   0.194E+00    0.454E-01
RMM:   2    -0.232184092795E+04   -0.20372E-01   -0.21755E-01  5749   0.334E-01    0.249E-01
RMM:   3    -0.232184203169E+04   -0.11037E-02   -0.20500E-02  5281   0.107E-01    0.230E-01
RMM:   4    -0.232184172109E+04    0.31060E-03   -0.22101E-03  5301   0.268E-02    0.154E-01
RMM:   5    -0.232184141809E+04    0.30300E-03   -0.91968E-04  4937   0.216E-02    0.531E-02
RMM:   6    -0.232184141079E+04    0.73046E-05   -0.18714E-04  4447   0.128E-02    0.193E-02
RMM:   7    -0.232184140696E+04    0.38250E-05   -0.23162E-05  2943   0.492E-03
  38 F= -.23424744E+04 E0= -.23424744E+04  d E =-.846490E-02  mag=     3.0000
       N       E                     dE             d eps       ncg     rms          rms(c)
DAV:   1    -0.232182560771E+04    0.15803E-01   -0.29083E+00  4448   0.181E+00    0.424E-01
RMM:   2    -0.232184336298E+04   -0.17755E-01   -0.18967E-01  5764   0.311E-01    0.231E-01
RMM:   3    -0.232184432272E+04   -0.95974E-03   -0.17909E-02  5269   0.103E-01    0.211E-01
RMM:   4    -0.232184407300E+04    0.24972E-03   -0.19398E-03  5249   0.252E-02    0.145E-01
RMM:   5    -0.232184379921E+04    0.27379E-03   -0.81315E-04  4915   0.203E-02    0.492E-02
RMM:   6    -0.232184379164E+04    0.75726E-05   -0.16019E-04  4305   0.120E-02    0.184E-02
RMM:   7    -0.232184378764E+04    0.40018E-05   -0.23145E-05  2947   0.483E-03
  39 F= -.23424764E+04 E0= -.23424764E+04  d E =-.104066E-01  mag=     3.0000
       N       E                     dE             d eps       ncg     rms          rms(c)
DAV:   1    -0.232183000023E+04    0.13791E-01   -0.30523E+00  4448   0.184E+00    0.410E-01
RMM:   2    -0.232185005919E+04   -0.20059E-01   -0.21332E-01  5824   0.323E-01    0.223E-01
RMM:   3    -0.232185106899E+04   -0.10098E-02   -0.19697E-02  5311   0.104E-01    0.166E-01
RMM:   4    -0.232185109096E+04   -0.21969E-04   -0.21787E-03  5254   0.254E-02    0.168E-01
RMM:   5    -0.232185077025E+04    0.32072E-03   -0.84628E-04  4983   0.195E-02    0.599E-02
RMM:   6    -0.232185075678E+04    0.13464E-04   -0.16467E-04  4268   0.112E-02    0.200E-02
RMM:   7    -0.232185075372E+04    0.30613E-05   -0.26920E-05  2945   0.568E-03
  40 F= -.23424829E+04 E0= -.23424829E+04  d E =-.651390E-02  mag=     3.0000
       N       E                     dE             d eps       ncg     rms          rms(c)
DAV:   1    -0.232181455514E+04    0.36202E-01   -0.56941E+00  4448   0.251E+00    0.560E-01
RMM:   2    -0.232185188134E+04   -0.37326E-01   -0.39726E-01  5819   0.440E-01    0.304E-01
RMM:   3    -0.232185381782E+04   -0.19365E-02   -0.37395E-02  5313   0.144E-01    0.219E-01
RMM:   4    -0.232185391634E+04   -0.98522E-04   -0.41321E-03  5353   0.348E-02    0.235E-01
RMM:   5    -0.232185329295E+04    0.62339E-03   -0.14948E-03  5093   0.258E-02    0.843E-02
RMM:   6    -0.232185326256E+04    0.30387E-04   -0.31430E-04  4664   0.145E-02    0.249E-02
RMM:   7    -0.232185325849E+04    0.40716E-05   -0.44654E-05  3103   0.805E-03
  41 F= -.23424847E+04 E0= -.23424847E+04  d E =-.837302E-02  mag=     3.0000
       N       E                     dE             d eps       ncg     rms          rms(c)
DAV:   1    -0.232183144398E+04    0.21819E-01   -0.40941E+00  4448   0.211E+00    0.453E-01
RMM:   2    -0.232185938911E+04   -0.27945E-01   -0.29743E-01  5857   0.378E-01    0.251E-01
RMM:   3    -0.232186064289E+04   -0.12538E-02   -0.25740E-02  5378   0.115E-01    0.161E-01
RMM:   4    -0.232186054505E+04    0.97845E-04   -0.28593E-03  4664   0.298E-02    0.140E-01
RMM:   5    -0.232186048037E+04    0.64681E-04   -0.84980E-04  4967   0.210E-02    0.119E-01
RMM:   6    -0.232186035653E+04    0.12384E-03   -0.21750E-04  4490   0.106E-02    0.237E-02
RMM:   7    -0.232186035185E+04    0.46753E-05   -0.34167E-05  2960   0.702E-03
  42 F= -.23424914E+04 E0= -.23424914E+04  d E =-.665907E-02  mag=     3.0000
       N       E                     dE             d eps       ncg     rms          rms(c)
DAV:   1    -0.232181034385E+04    0.50013E-01   -0.74243E+00  4448   0.285E+00    0.610E-01
RMM:   2    -0.232186098911E+04   -0.50645E-01   -0.53909E-01  5843   0.508E-01    0.340E-01
RMM:   3    -0.232186326419E+04   -0.22751E-02   -0.47512E-02  5364   0.158E-01    0.216E-01
RMM:   4    -0.232186300064E+04    0.26355E-03   -0.49884E-03  4559   0.393E-02    0.167E-01
RMM:   5    -0.232186305019E+04   -0.49543E-04   -0.15361E-03  5049   0.290E-02    0.184E-01
RMM:   6    -0.232186272431E+04    0.32588E-03   -0.44784E-04  5018   0.148E-02    0.276E-02
RMM:   7    -0.232186271960E+04    0.47088E-05   -0.54842E-05  3031   0.817E-03
  43 F= -.23424932E+04 E0= -.23424932E+04  d E =-.841834E-02  mag=     3.0000
       N       E                     dE             d eps       ncg     rms          rms(c)
DAV:   1    -0.232184059657E+04    0.22128E-01   -0.48528E+00  4448   0.231E+00    0.548E-01
RMM:   2    -0.232186903399E+04   -0.28437E-01   -0.30714E-01  5826   0.405E-01    0.283E-01
RMM:   3    -0.232186999226E+04   -0.95827E-03   -0.26127E-02  5324   0.124E-01    0.193E-01
RMM:   4    -0.232187005239E+04   -0.60131E-04   -0.31800E-03  5126   0.324E-02    0.217E-01
RMM:   5    -0.232186959608E+04    0.45631E-03   -0.12254E-03  5256   0.243E-02    0.932E-02
RMM:   6    -0.232186952840E+04    0.67681E-04   -0.28020E-04  4633   0.132E-02    0.218E-02
RMM:   7    -0.232186952427E+04    0.41252E-05   -0.39411E-05  3059   0.867E-03
  44 F= -.23424992E+04 E0= -.23424992E+04  d E =-.606173E-02  mag=     3.0000
       N       E                     dE             d eps       ncg     rms          rms(c)
DAV:   1    -0.232186797884E+04    0.15496E-02   -0.32565E-01  4752   0.600E-01    0.143E-01
RMM:   2    -0.232186990299E+04   -0.19241E-02   -0.20740E-02  5838   0.106E-01    0.741E-02
RMM:   3    -0.232186996503E+04   -0.62036E-04   -0.17655E-03  4852   0.312E-02    0.527E-02
RMM:   4    -0.232186996454E+04    0.48976E-06   -0.21306E-04  3304   0.912E-03    0.553E-02
RMM:   5    -0.232186993401E+04    0.30528E-04   -0.91083E-05  3294   0.749E-03    0.241E-02
RMM:   6    -0.232186992951E+04    0.44980E-05   -0.23403E-05  2905   0.549E-03
  45 F= -.23424994E+04 E0= -.23424994E+04  d E =-.627107E-02  mag=     3.0000
       N       E                     dE             d eps       ncg     rms          rms(c)
DAV:   1    -0.232187023289E+04   -0.29888E-03   -0.10232E+00  4480   0.106E+00    0.272E-01
RMM:   2    -0.232187484035E+04   -0.46075E-02   -0.50352E-02  5660   0.174E-01    0.169E-01
RMM:   3    -0.232187500549E+04   -0.16514E-03   -0.43720E-03  5176   0.575E-02    0.178E-01
RMM:   4    -0.232187469781E+04    0.30768E-03   -0.62889E-04  4909   0.167E-02    0.820E-02
RMM:   5    -0.232187460740E+04    0.90410E-04   -0.31900E-04  4704   0.144E-02    0.298E-02
RMM:   6    -0.232187459826E+04    0.91373E-05   -0.67342E-05  3458   0.873E-03
  46 F= -.23425035E+04 E0= -.23425035E+04  d E =-.404959E-02  mag=     3.0000
       N       E                     dE             d eps       ncg     rms          rms(c)
DAV:   1    -0.232187339178E+04    0.12156E-02   -0.40119E-01  4512   0.666E-01    0.171E-01
RMM:   2    -0.232187522436E+04   -0.18326E-02   -0.19963E-02  5755   0.111E-01    0.109E-01
RMM:   3    -0.232187529302E+04   -0.68661E-04   -0.17589E-03  5055   0.388E-02    0.115E-01
RMM:   4    -0.232187516179E+04    0.13123E-03   -0.25025E-04  3984   0.109E-02    0.512E-02
RMM:   5    -0.232187512159E+04    0.40199E-04   -0.12649E-04  4095   0.976E-03    0.183E-02
RMM:   6    -0.232187511726E+04    0.43353E-05   -0.27076E-05  2936   0.669E-03
  47 F= -.23425036E+04 E0= -.23425036E+04  d E =-.417853E-02  mag=     3.0000
       N       E                     dE             d eps       ncg     rms          rms(c)
DAV:   1    -0.232187539809E+04   -0.27650E-03   -0.69102E-01  4464   0.879E-01    0.194E-01
RMM:   2    -0.232187857090E+04   -0.31728E-02   -0.33276E-02  5577   0.137E-01    0.145E-01
RMM:   3    -0.232187865123E+04   -0.80339E-04   -0.28082E-03  4900   0.509E-02    0.136E-01
RMM:   4    -0.232187846130E+04    0.18993E-03   -0.34610E-04  4467   0.124E-02    0.565E-02
RMM:   5    -0.232187841654E+04    0.44764E-04   -0.17513E-04  4250   0.111E-02    0.190E-02
RMM:   6    -0.232187841880E+04   -0.22614E-05   -0.30208E-05  2938   0.720E-03
  48 F= -.23425064E+04 E0= -.23425064E+04  d E =-.284185E-02  mag=     3.0000
       N       E                     dE             d eps       ncg     rms          rms(c)
DAV:   1    -0.232185669815E+04    0.21718E-01   -0.58959E+00  4448   0.257E+00    0.565E-01
RMM:   2    -0.232188365604E+04   -0.26958E-01   -0.28359E-01  5551   0.399E-01    0.414E-01
RMM:   3    -0.232188439822E+04   -0.74219E-03   -0.23709E-02  4952   0.137E-01    0.399E-01
RMM:   4    -0.232188275458E+04    0.16436E-02   -0.29252E-03  5341   0.355E-02    0.165E-01
RMM:   5    -0.232188237804E+04    0.37654E-03   -0.15442E-03  4941   0.300E-02    0.584E-02
RMM:   6    -0.232188237996E+04   -0.19192E-05   -0.26147E-04  4695   0.176E-02    0.230E-02
RMM:   7    -0.232188237563E+04    0.43287E-05   -0.34796E-05  3051   0.509E-03
  49 F= -.23425091E+04 E0= -.23425091E+04  d E =-.544456E-02  mag=     3.0000
       N       E                     dE             d eps       ncg     rms          rms(c)
DAV:   1    -0.232188203911E+04    0.34086E-03   -0.10741E+00  4512   0.110E+00    0.255E-01
RMM:   2    -0.232188766273E+04   -0.56236E-02   -0.59021E-02  5561   0.178E-01    0.185E-01
RMM:   3    -0.232188784497E+04   -0.18223E-03   -0.52026E-03  4856   0.665E-02    0.175E-01
RMM:   4    -0.232188753627E+04    0.30870E-03   -0.61436E-04  4880   0.164E-02    0.737E-02
RMM:   5    -0.232188746164E+04    0.74626E-04   -0.31820E-04  4707   0.140E-02    0.237E-02
RMM:   6    -0.232188746335E+04   -0.17120E-05   -0.43102E-05  3113   0.811E-03
  50 F= -.23425138E+04 E0= -.23425138E+04  d E =-.470156E-02  mag=     3.0000
       N       E                     dE             d eps       ncg     rms          rms(c)
DAV:   1    -0.232187858902E+04    0.88726E-02   -0.22862E+00  4448   0.160E+00    0.373E-01
RMM:   2    -0.232189055330E+04   -0.11964E-01   -0.12571E-01  5520   0.258E-01    0.268E-01
RMM:   3    -0.232189096010E+04   -0.40680E-03   -0.11116E-02  4903   0.957E-02    0.258E-01
RMM:   4    -0.232189028270E+04    0.67740E-03   -0.13196E-03  5165   0.237E-02    0.107E-01
RMM:   5    -0.232189012260E+04    0.16011E-03   -0.66188E-04  4977   0.197E-02    0.348E-02
RMM:   6    -0.232189012479E+04   -0.21993E-05   -0.90902E-05  4049   0.107E-02
  51 F= -.23425158E+04 E0= -.23425158E+04  d E =-.679380E-02  mag=     3.0000
       N       E                     dE             d eps       ncg     rms          rms(c)
DAV:   1    -0.232188939770E+04    0.72490E-03   -0.10453E+00  4464   0.109E+00    0.278E-01
RMM:   2    -0.232189504098E+04   -0.56433E-02   -0.59521E-02  5596   0.179E-01    0.186E-01
RMM:   3    -0.232189526863E+04   -0.22764E-03   -0.54834E-03  5073   0.667E-02    0.191E-01
RMM:   4    -0.232189490195E+04    0.36668E-03   -0.67936E-04  4906   0.172E-02    0.733E-02
RMM:   5    -0.232189482952E+04    0.72432E-04   -0.28661E-04  4654   0.137E-02    0.281E-02
RMM:   6    -0.232189482745E+04    0.20700E-05   -0.61511E-05  3448   0.841E-03
  52 F= -.23425200E+04 E0= -.23425200E+04  d E =-.420294E-02  mag=     3.0000
       N       E                     dE             d eps       ncg     rms          rms(c)
DAV:   1    -0.232189054996E+04    0.42796E-02   -0.11854E+00  4464   0.116E+00    0.297E-01
RMM:   2    -0.232189694879E+04   -0.63988E-02   -0.67449E-02  5624   0.192E-01    0.198E-01
RMM:   3    -0.232189721235E+04   -0.26355E-03   -0.62181E-03  5090   0.723E-02    0.203E-01
RMM:   4    -0.232189679309E+04    0.41926E-03   -0.76590E-04  5040   0.184E-02    0.784E-02
RMM:   5    -0.232189670505E+04    0.88042E-04   -0.33032E-04  4750   0.144E-02    0.301E-02
RMM:   6    -0.232189669992E+04    0.51245E-05   -0.68325E-05  3657   0.886E-03
  53 F= -.23425214E+04 E0= -.23425214E+04  d E =-.553823E-02  mag=     3.0000
       N       E                     dE             d eps       ncg     rms          rms(c)
DAV:   1    -0.232189625678E+04    0.44827E-03   -0.11401E+00  4464   0.113E+00    0.280E-01
RMM:   2    -0.232190183802E+04   -0.55812E-02   -0.59505E-02  5645   0.187E-01    0.199E-01
RMM:   3    -0.232190196192E+04   -0.12389E-03   -0.49422E-03  5142   0.661E-02    0.197E-01
RMM:   4    -0.232190157007E+04    0.39185E-03   -0.71302E-04  5046   0.181E-02    0.788E-02
RMM:   5    -0.232190148603E+04    0.84043E-04   -0.32475E-04  4771   0.146E-02    0.320E-02
RMM:   6    -0.232190147607E+04    0.99606E-05   -0.76207E-05  3763   0.895E-03
  54 F= -.23425255E+04 E0= -.23425255E+04  d E =-.411774E-02  mag=     3.0000
       N       E                     dE             d eps       ncg     rms          rms(c)
DAV:   1    -0.232190010561E+04    0.13804E-02   -0.54935E-01  4544   0.788E-01    0.196E-01
RMM:   2    -0.232190280391E+04   -0.26983E-02   -0.28763E-02  5726   0.131E-01    0.140E-01
RMM:   3    -0.232190286617E+04   -0.62255E-04   -0.24299E-03  5096   0.475E-02    0.138E-01
RMM:   4    -0.232190267182E+04    0.19435E-03   -0.34875E-04  4364   0.129E-02    0.552E-02
RMM:   5    -0.232190262549E+04    0.46333E-04   -0.15842E-04  4168   0.107E-02    0.224E-02
RMM:   6    -0.232190261890E+04    0.65902E-05   -0.38799E-05  3095   0.747E-03
  55 F= -.23425262E+04 E0= -.23425262E+04  d E =-.480118E-02  mag=     3.0000
       N       E                     dE             d eps       ncg     rms          rms(c)
DAV:   1    -0.232190225327E+04    0.37222E-03   -0.11616E+00  4448   0.114E+00    0.276E-01
RMM:   2    -0.232190699175E+04   -0.47385E-02   -0.51049E-02  5646   0.182E-01    0.183E-01
RMM:   3    -0.232190711305E+04   -0.12131E-03   -0.39793E-03  5163   0.630E-02    0.194E-01
RMM:   4    -0.232190671877E+04    0.39429E-03   -0.64226E-04  5099   0.175E-02    0.769E-02
RMM:   5    -0.232190664245E+04    0.76319E-04   -0.33152E-04  4685   0.148E-02    0.247E-02
RMM:   6    -0.232190664231E+04    0.13455E-06   -0.52222E-05  3224   0.841E-03
  56 F= -.23425299E+04 E0= -.23425299E+04  d E =-.367347E-02  mag=     3.0000
       N       E                     dE             d eps       ncg     rms          rms(c)
DAV:   1    -0.232190556450E+04    0.10779E-02   -0.48037E-01  4512   0.732E-01    0.179E-01
RMM:   2    -0.232190755135E+04   -0.19868E-02   -0.21304E-02  5673   0.118E-01    0.118E-01
RMM:   3    -0.232190760054E+04   -0.49190E-04   -0.16542E-03  5013   0.393E-02    0.126E-01
RMM:   4    -0.232190743731E+04    0.16323E-03   -0.26487E-04  4283   0.114E-02    0.499E-02
RMM:   5    -0.232190740436E+04    0.32941E-04   -0.13573E-04  4071   0.999E-03    0.158E-02
RMM:   6    -0.232190740480E+04   -0.43385E-06   -0.24301E-05  2910   0.650E-03
  57 F= -.23425304E+04 E0= -.23425304E+04  d E =-.420984E-02  mag=     3.0000
       N       E                     dE             d eps       ncg     rms          rms(c)
DAV:   1    -0.232190747645E+04   -0.72084E-04   -0.12078E+00  4448   0.117E+00    0.269E-01
RMM:   2    -0.232191179013E+04   -0.43137E-02   -0.46062E-02  5485   0.180E-01    0.181E-01
RMM:   3    -0.232191182878E+04   -0.38652E-04   -0.34053E-03  4950   0.618E-02    0.192E-01
RMM:   4    -0.232191144675E+04    0.38203E-03   -0.58656E-04  5094   0.174E-02    0.761E-02
RMM:   5    -0.232191136797E+04    0.78785E-04   -0.33308E-04  4776   0.153E-02    0.213E-02
RMM:   6    -0.232191136963E+04   -0.16582E-05   -0.43916E-05  3093   0.827E-03
  58 F= -.23425340E+04 E0= -.23425340E+04  d E =-.360800E-02  mag=     3.0000
       N       E                     dE             d eps       ncg     rms          rms(c)
DAV:   1    -0.232190964145E+04    0.17265E-02   -0.88097E-01  4480   0.997E-01    0.231E-01
RMM:   2    -0.232191281102E+04   -0.31696E-02   -0.33776E-02  5486   0.154E-01    0.156E-01
RMM:   3    -0.232191283492E+04   -0.23904E-04   -0.24919E-03  4985   0.507E-02    0.165E-01
RMM:   4    -0.232191255224E+04    0.28268E-03   -0.42934E-04  4895   0.148E-02    0.652E-02
RMM:   5    -0.232191249335E+04    0.58889E-04   -0.24548E-04  4541   0.132E-02    0.183E-02
RMM:   6    -0.232191249434E+04   -0.98140E-06   -0.32043E-05  2960   0.768E-03
  59 F= -.23425348E+04 E0= -.23425348E+04  d E =-.442760E-02  mag=     3.0000
       N       E                     dE             d eps       ncg     rms          rms(c)
DAV:   1    -0.232191274680E+04   -0.25344E-03   -0.12142E+00  4448   0.116E+00    0.278E-01
RMM:   2    -0.232191668198E+04   -0.39352E-02   -0.42682E-02  5419   0.179E-01    0.175E-01
RMM:   3    -0.232191673327E+04   -0.51292E-04   -0.32849E-03  4932   0.624E-02    0.200E-01
RMM:   4    -0.232191632896E+04    0.40431E-03   -0.58784E-04  5053   0.175E-02    0.767E-02
RMM:   5    -0.232191625295E+04    0.76008E-04   -0.35595E-04  4870   0.152E-02    0.221E-02
RMM:   6    -0.232191625095E+04    0.20009E-05   -0.37462E-05  3074   0.798E-03
  60 F= -.23425380E+04 E0= -.23425380E+04  d E =-.322721E-02  mag=     3.0000
       N       E                     dE             d eps       ncg     rms          rms(c)
DAV:   1    -0.232191595924E+04    0.29371E-03   -0.30566E-01  4576   0.584E-01    0.141E-01
RMM:   2    -0.232191696352E+04   -0.10043E-02   -0.10849E-02  5508   0.906E-02    0.896E-02
RMM:   3    -0.232191697780E+04   -0.14284E-04   -0.82352E-04  4654   0.297E-02    0.102E-01
RMM:   4    -0.232191687079E+04    0.10701E-03   -0.14788E-04  3650   0.885E-03    0.388E-02
RMM:   5    -0.232191684829E+04    0.22499E-04   -0.92336E-05  3988   0.830E-03    0.112E-02
RMM:   6    -0.232191684765E+04    0.63899E-06   -0.12319E-05  2877   0.571E-03
  61 F= -.23425384E+04 E0= -.23425384E+04  d E =-.355792E-02  mag=     3.0000
       N       E                     dE             d eps       ncg     rms          rms(c)
DAV:   1    -0.232191740405E+04   -0.55576E-03   -0.86288E-01  4448   0.970E-01    0.238E-01
RMM:   2    -0.232192012265E+04   -0.27186E-02   -0.29925E-02  5345   0.148E-01    0.139E-01
RMM:   3    -0.232192011493E+04    0.77281E-05   -0.21526E-03  4789   0.523E-02    0.155E-01
RMM:   4    -0.232191989440E+04    0.22053E-03   -0.41949E-04  4879   0.149E-02    0.720E-02
RMM:   5    -0.232191983214E+04    0.62255E-04   -0.26670E-04  4702   0.136E-02    0.185E-02
RMM:   6    -0.232191983036E+04    0.17780E-05   -0.27315E-05  2946   0.715E-03
  62 F= -.23425410E+04 E0= -.23425410E+04  d E =-.265586E-02  mag=     3.0000
       N       E                     dE             d eps       ncg     rms          rms(c)
DAV:   1    -0.232191946742E+04    0.36472E-03   -0.32811E-01  4496   0.598E-01    0.148E-01
RMM:   2    -0.232192051374E+04   -0.10463E-02   -0.11490E-02  5411   0.921E-02    0.867E-02
RMM:   3    -0.232192051456E+04   -0.81993E-06   -0.83180E-04  4701   0.320E-02    0.969E-02
RMM:   4    -0.232192042782E+04    0.86736E-04   -0.16799E-04  3793   0.934E-03    0.451E-02
RMM:   5    -0.232192040081E+04    0.27011E-04   -0.10258E-04  4043   0.906E-03    0.115E-02
RMM:   6    -0.232192040037E+04    0.43715E-06   -0.12433E-05  2882   0.579E-03
  63 F= -.23425414E+04 E0= -.23425414E+04  d E =-.302415E-02  mag=     3.0000
       N       E                     dE             d eps       ncg     rms          rms(c)
DAV:   1    -0.232191968523E+04    0.71558E-03   -0.11307E+00  4416   0.110E+00    0.274E-01
RMM:   2    -0.232192337534E+04   -0.36901E-02   -0.40830E-02  5491   0.170E-01    0.156E-01
RMM:   3    -0.232192342194E+04   -0.46599E-04   -0.28275E-03  4932   0.554E-02    0.179E-01
RMM:   4    -0.232192312517E+04    0.29677E-03   -0.56538E-04  5090   0.159E-02    0.812E-02
RMM:   5    -0.232192304472E+04    0.80448E-04   -0.33065E-04  4753   0.147E-02    0.225E-02
RMM:   6    -0.232192304306E+04    0.16525E-05   -0.35939E-05  3040   0.785E-03
  64 F= -.23425440E+04 E0= -.23425440E+04  d E =-.260176E-02  mag=     3.0000
       N       E                     dE             d eps       ncg     rms          rms(c)
DAV:   1    -0.232192233995E+04    0.70477E-03   -0.33888E-01  4480   0.604E-01    0.151E-01
RMM:   2    -0.232192346053E+04   -0.11206E-02   -0.12322E-02  5533   0.938E-02    0.861E-02
RMM:   3    -0.232192347747E+04   -0.16940E-04   -0.85019E-04  4734   0.294E-02    0.992E-02
RMM:   4    -0.232192338597E+04    0.91495E-04   -0.16894E-04  3694   0.889E-03    0.447E-02
RMM:   5    -0.232192336012E+04    0.25854E-04   -0.10078E-04  3985   0.867E-03    0.120E-02
RMM:   6    -0.232192336035E+04   -0.23063E-06   -0.12918E-05  2877   0.586E-03
  65 F= -.23425443E+04 E0= -.23425443E+04  d E =-.289716E-02  mag=     3.0000
       N       E                     dE             d eps       ncg     rms          rms(c)
DAV:   1    -0.232192235543E+04    0.10047E-02   -0.92031E-01  4416   0.995E-01    0.240E-01
RMM:   2    -0.232192603791E+04   -0.36825E-02   -0.40021E-02  5598   0.158E-01    0.154E-01
RMM:   3    -0.232192615581E+04   -0.11790E-03   -0.29371E-03  5002   0.490E-02    0.177E-01
RMM:   4    -0.232192587406E+04    0.28175E-03   -0.50307E-04  4776   0.142E-02    0.722E-02
RMM:   5    -0.232192580722E+04    0.66840E-04   -0.25414E-04  4622   0.130E-02    0.241E-02
RMM:   6    -0.232192580628E+04    0.94486E-06   -0.33987E-05  3007   0.766E-03
  66 F= -.23425468E+04 E0= -.23425468E+04  d E =-.251599E-02  mag=     3.0000
       N       E                     dE             d eps       ncg     rms          rms(c)
DAV:   1    -0.232192379936E+04    0.20079E-02   -0.65509E-01  4432   0.840E-01    0.203E-01
RMM:   2    -0.232192642728E+04   -0.26279E-02   -0.28481E-02  5614   0.134E-01    0.132E-01
RMM:   3    -0.232192651934E+04   -0.92057E-04   -0.21178E-03  4987   0.414E-02    0.152E-01
RMM:   4    -0.232192630923E+04    0.21011E-03   -0.36110E-04  4485   0.121E-02    0.606E-02
RMM:   5    -0.232192625967E+04    0.49559E-04   -0.17856E-04  4323   0.111E-02    0.200E-02
RMM:   6    -0.232192625923E+04    0.43902E-06   -0.25657E-05  2935   0.719E-03
  67 F= -.23425473E+04 E0= -.23425473E+04  d E =-.303041E-02  mag=     3.0000
       N       E                     dE             d eps       ncg     rms          rms(c)
DAV:   1    -0.232192333382E+04    0.29258E-02   -0.11781E+00  4416   0.112E+00    0.276E-01
RMM:   2    -0.232192903020E+04   -0.56964E-02   -0.60692E-02  5704   0.188E-01    0.177E-01
RMM:   3    -0.232192929651E+04   -0.26630E-03   -0.45805E-03  5066   0.595E-02    0.212E-01
RMM:   4    -0.232192889426E+04    0.40225E-03   -0.69136E-04  4888   0.162E-02    0.791E-02
RMM:   5    -0.232192881226E+04    0.81999E-04   -0.34319E-04  4714   0.141E-02    0.268E-02
RMM:   6    -0.232192881424E+04   -0.19759E-05   -0.39875E-05  3023   0.800E-03
  68 F= -.23425500E+04 E0= -.23425500E+04  d E =-.267053E-02  mag=     3.0000
       N       E                     dE             d eps       ncg     rms          rms(c)
DAV:   1    -0.232192589631E+04    0.29160E-02   -0.70407E-01  4432   0.869E-01    0.214E-01
RMM:   2    -0.232192931859E+04   -0.34223E-02   -0.36387E-02  5710   0.146E-01    0.138E-01
RMM:   3    -0.232192947890E+04   -0.16031E-03   -0.27353E-03  5006   0.442E-02    0.165E-01
RMM:   4    -0.232192923453E+04    0.24438E-03   -0.41466E-04  4390   0.125E-02    0.613E-02
RMM:   5    -0.232192918342E+04    0.51105E-04   -0.20480E-04  4351   0.112E-02    0.206E-02
RMM:   6    -0.232192918472E+04   -0.13042E-05   -0.25164E-05  2930   0.713E-03
  69 F= -.23425505E+04 E0= -.23425505E+04  d E =-.313301E-02  mag=     3.0000
       N       E                     dE             d eps       ncg     rms          rms(c)
DAV:   1    -0.232192661207E+04    0.25713E-02   -0.12580E+00  4448   0.114E+00    0.275E-01
RMM:   2    -0.232193194530E+04   -0.53332E-02   -0.57269E-02  5728   0.189E-01    0.170E-01
RMM:   3    -0.232193216773E+04   -0.22243E-03   -0.43280E-03  5105   0.581E-02    0.202E-01
RMM:   4    -0.232193181150E+04    0.35623E-03   -0.65973E-04  4975   0.160E-02    0.834E-02
RMM:   5    -0.232193172355E+04    0.87957E-04   -0.38719E-04  4646   0.145E-02    0.252E-02
RMM:   6    -0.232193172505E+04   -0.15050E-05   -0.35988E-05  3015   0.835E-03
  70 F= -.23425532E+04 E0= -.23425532E+04  d E =-.271764E-02  mag=     3.0000
       N       E                     dE             d eps       ncg     rms          rms(c)
DAV:   1    -0.232192906896E+04    0.26546E-02   -0.74677E-01  4464   0.882E-01    0.212E-01
RMM:   2    -0.232193224704E+04   -0.31781E-02   -0.34086E-02  5734   0.146E-01    0.131E-01
RMM:   3    -0.232193237475E+04   -0.12771E-03   -0.25256E-03  5048   0.430E-02    0.155E-01
RMM:   4    -0.232193216604E+04    0.20871E-03   -0.38960E-04  4408   0.123E-02    0.648E-02
RMM:   5    -0.232193211120E+04    0.54837E-04   -0.22971E-04  4366   0.116E-02    0.194E-02
RMM:   6    -0.232193211243E+04   -0.12300E-05   -0.22712E-05  2917   0.728E-03
  71 F= -.23425537E+04 E0= -.23425537E+04  d E =-.324480E-02  mag=     3.0000
       N       E                     dE             d eps       ncg     rms          rms(c)
DAV:   1    -0.232193061285E+04    0.14983E-02   -0.10896E+00  4464   0.106E+00    0.270E-01
RMM:   2    -0.232193462655E+04   -0.40137E-02   -0.44267E-02  5718   0.174E-01    0.147E-01
RMM:   3    -0.232193472134E+04   -0.94788E-04   -0.33796E-03  5085   0.544E-02    0.162E-01
RMM:   4    -0.232193453175E+04    0.18959E-03   -0.56133E-04  4958   0.151E-02    0.899E-02
RMM:   5    -0.232193443537E+04    0.96376E-04   -0.32998E-04  4615   0.140E-02    0.223E-02
RMM:   6    -0.232193443440E+04    0.97563E-06   -0.33414E-05  2968   0.773E-03
  72 F= -.23425562E+04 E0= -.23425562E+04  d E =-.253779E-02  mag=     3.0000
       N       E                     dE             d eps       ncg     rms          rms(c)
DAV:   1    -0.232193359171E+04    0.84367E-03   -0.27657E-01  4576   0.534E-01    0.137E-01
RMM:   2    -0.232193462274E+04   -0.10310E-02   -0.11335E-02  5717   0.885E-02    0.747E-02
RMM:   3    -0.232193464588E+04   -0.23141E-04   -0.85282E-04  4630   0.272E-02    0.825E-02
RMM:   4    -0.232193459581E+04    0.50071E-04   -0.14210E-04  3182   0.803E-03    0.456E-02
RMM:   5    -0.232193456934E+04    0.26467E-04   -0.90360E-05  3848   0.779E-03    0.115E-02
RMM:   6    -0.232193456898E+04    0.36087E-06   -0.11481E-05  2881   0.576E-03
  73 F= -.23425565E+04 E0= -.23425565E+04  d E =-.278251E-02  mag=     3.0000
       N       E                     dE             d eps       ncg     rms          rms(c)
DAV:   1    -0.232193349999E+04    0.10694E-02   -0.95417E-01  4464   0.975E-01    0.239E-01
RMM:   2    -0.232193703925E+04   -0.35393E-02   -0.38997E-02  5735   0.159E-01    0.136E-01
RMM:   3    -0.232193710844E+04   -0.69189E-04   -0.27200E-03  5062   0.480E-02    0.145E-01
RMM:   4    -0.232193697271E+04    0.13573E-03   -0.47703E-04  4651   0.138E-02    0.860E-02
RMM:   5    -0.232193689121E+04    0.81492E-04   -0.29550E-04  4495   0.130E-02    0.207E-02
RMM:   6    -0.232193689099E+04    0.22554E-06   -0.28389E-05  2948   0.733E-03
  74 F= -.23425590E+04 E0= -.23425590E+04  d E =-.252861E-02  mag=     3.0000
       N       E                     dE             d eps       ncg     rms          rms(c)
DAV:   1    -0.232193464197E+04    0.22492E-02   -0.73861E-01  4464   0.858E-01    0.211E-01
RMM:   2    -0.232193740448E+04   -0.27625E-02   -0.30341E-02  5734   0.141E-01    0.120E-01
RMM:   3    -0.232193745730E+04   -0.52815E-04   -0.21712E-03  5058   0.405E-02    0.128E-01
RMM:   4    -0.232193735092E+04    0.10637E-03   -0.37234E-04  4319   0.122E-02    0.759E-02
RMM:   5    -0.232193728633E+04    0.64591E-04   -0.23732E-04  4321   0.117E-02    0.173E-02
RMM:   6    -0.232193728585E+04    0.47967E-06   -0.22743E-05  2919   0.714E-03
  75 F= -.23425596E+04 E0= -.23425596E+04  d E =-.310846E-02  mag=     3.0000
       N       E                     dE             d eps       ncg     rms          rms(c)
DAV:   1    -0.232193569809E+04    0.15882E-02   -0.10632E+00  4464   0.102E+00    0.262E-01
RMM:   2    -0.232193976095E+04   -0.40629E-02   -0.44622E-02  5754   0.169E-01    0.147E-01
RMM:   3    -0.232193986025E+04   -0.99296E-04   -0.32422E-03  5147   0.510E-02    0.165E-01
RMM:   4    -0.232193966200E+04    0.19825E-03   -0.54246E-04  4761   0.146E-02    0.872E-02
RMM:   5    -0.232193957768E+04    0.84315E-04   -0.34992E-04  4527   0.137E-02    0.235E-02
RMM:   6    -0.232193957714E+04    0.53956E-06   -0.34524E-05  2979   0.772E-03
  76 F= -.23425621E+04 E0= -.23425621E+04  d E =-.251813E-02  mag=     3.0000
       N       E                     dE             d eps       ncg     rms          rms(c)
DAV:   1    -0.232193729504E+04    0.22826E-02   -0.73277E-01  4464   0.849E-01    0.219E-01
RMM:   2    -0.232194009503E+04   -0.28000E-02   -0.30690E-02  5764   0.140E-01    0.123E-01
RMM:   3    -0.232194017205E+04   -0.77020E-04   -0.22237E-03  5086   0.404E-02    0.140E-01
RMM:   4    -0.232194002328E+04    0.14877E-03   -0.37381E-04  4312   0.122E-02    0.715E-02
RMM:   5    -0.232193996414E+04    0.59137E-04   -0.24252E-04  4334   0.116E-02    0.195E-02
RMM:   6    -0.232193996404E+04    0.10310E-06   -0.24983E-05  2934   0.713E-03
  77 F= -.23425627E+04 E0= -.23425627E+04  d E =-.309518E-02  mag=     3.0000
       N       E                     dE             d eps       ncg     rms          rms(c)
DAV:   1    -0.232193701013E+04    0.29540E-02   -0.11982E+00  4464   0.109E+00    0.296E-01
RMM:   2    -0.232194248446E+04   -0.54743E-02   -0.59520E-02  5786   0.184E-01    0.168E-01
RMM:   3    -0.232194272500E+04   -0.24054E-03   -0.47862E-03  5177   0.570E-02    0.195E-01
RMM:   4    -0.232194243286E+04    0.29214E-03   -0.75354E-04  4926   0.162E-02    0.939E-02
RMM:   5    -0.232194232673E+04    0.10613E-03   -0.40909E-04  4719   0.147E-02    0.271E-02
RMM:   6    -0.232194232818E+04   -0.14477E-05   -0.39948E-05  3038   0.794E-03
  78 F= -.23425653E+04 E0= -.23425653E+04  d E =-.263454E-02  mag=     3.0000
       N       E                     dE             d eps       ncg     rms          rms(c)
DAV:   1    -0.232194126381E+04    0.10629E-02   -0.26464E-01  4560   0.512E-01    0.140E-01
RMM:   2    -0.232194248300E+04   -0.12192E-02   -0.13192E-02  5803   0.874E-02    0.807E-02
RMM:   3    -0.232194254118E+04   -0.58179E-04   -0.10628E-03  4586   0.266E-02    0.955E-02
RMM:   4    -0.232194246871E+04    0.72472E-04   -0.16669E-04  3182   0.806E-03    0.437E-02
RMM:   5    -0.232194244443E+04    0.24273E-04   -0.93739E-05  3801   0.756E-03    0.130E-02
RMM:   6    -0.232194244495E+04   -0.51354E-06   -0.11678E-05  2882   0.559E-03
  79 F= -.23425656E+04 E0= -.23425656E+04  d E =-.287882E-02  mag=     3.0000
       N       E                     dE             d eps       ncg     rms          rms(c)
DAV:   1    -0.232193895791E+04    0.34865E-02   -0.10292E+00  4464   0.102E+00    0.291E-01
RMM:   2    -0.232194454196E+04   -0.55840E-02   -0.60112E-02  5798   0.176E-01    0.164E-01
RMM:   3    -0.232194485066E+04   -0.30870E-03   -0.48618E-03  5156   0.541E-02    0.198E-01
RMM:   4    -0.232194453455E+04    0.31610E-03   -0.75639E-04  4817   0.154E-02    0.861E-02
RMM:   5    -0.232194444008E+04    0.94473E-04   -0.33507E-04  4597   0.136E-02    0.269E-02
RMM:   6    -0.232194444236E+04   -0.22814E-05   -0.40417E-05  3012   0.771E-03
  80 F= -.23425678E+04 E0= -.23425678E+04  d E =-.227449E-02  mag=     3.0000
       N       E                     dE             d eps       ncg     rms          rms(c)
DAV:   1    -0.232194339434E+04    0.10457E-02   -0.19750E-01  4544   0.448E-01    0.128E-01
RMM:   2    -0.232194447883E+04   -0.10845E-02   -0.11615E-02  5813   0.782E-02    0.742E-02
RMM:   3    -0.232194454629E+04   -0.67462E-04   -0.95746E-04  4370   0.255E-02    0.908E-02
RMM:   4    -0.232194447807E+04    0.68225E-04   -0.14793E-04  3040   0.755E-03    0.375E-02
RMM:   5    -0.232194445891E+04    0.19153E-04   -0.67878E-05  3553   0.668E-03    0.123E-02
RMM:   6    -0.232194445974E+04   -0.82955E-06   -0.10946E-05  2870   0.526E-03
  81 F= -.23425680E+04 E0= -.23425680E+04  d E =-.241371E-02  mag=     3.0000
       N       E                     dE             d eps       ncg     rms          rms(c)
DAV:   1    -0.232194033222E+04    0.41267E-02   -0.10876E+00  4432   0.103E+00    0.284E-01
RMM:   2    -0.232194625785E+04   -0.59256E-02   -0.63542E-02  5811   0.178E-01    0.175E-01
RMM:   3    -0.232194661308E+04   -0.35524E-03   -0.51314E-03  5225   0.540E-02    0.210E-01
RMM:   4    -0.232194623539E+04    0.37769E-03   -0.78454E-04  4875   0.156E-02    0.853E-02
RMM:   5    -0.232194614701E+04    0.88386E-04   -0.35624E-04  4567   0.137E-02    0.264E-02
RMM:   6    -0.232194614838E+04   -0.13761E-05   -0.40291E-05  3049   0.795E-03
  82 F= -.23425700E+04 E0= -.23425700E+04  d E =-.199040E-02  mag=     3.0000
       N       E                     dE             d eps       ncg     rms          rms(c)
DAV:   1    -0.232194537189E+04    0.77512E-03   -0.13934E-01  4592   0.369E-01    0.103E-01
RMM:   2    -0.232194614611E+04   -0.77422E-03   -0.82207E-03  5873   0.649E-02    0.666E-02
RMM:   3    -0.232194619452E+04   -0.48413E-04   -0.67544E-04  3970   0.205E-02    0.790E-02
RMM:   4    -0.232194613983E+04    0.54689E-04   -0.10284E-04  2959   0.679E-03    0.303E-02
RMM:   5    -0.232194612813E+04    0.11702E-04   -0.50386E-05  3328   0.585E-03    0.984E-03
RMM:   6    -0.232194612877E+04   -0.64091E-06   -0.78037E-06  2854   0.459E-03
  83 F= -.23425701E+04 E0= -.23425701E+04  d E =-.207953E-02  mag=     3.0000
       N       E                     dE             d eps       ncg     rms          rms(c)
DAV:   1    -0.232194333756E+04    0.27906E-02   -0.10613E+00  4432   0.100E+00    0.266E-01
RMM:   2    -0.232194817143E+04   -0.48339E-02   -0.52407E-02  5782   0.169E-01    0.176E-01
RMM:   3    -0.232194842277E+04   -0.25134E-03   -0.42489E-03  5213   0.499E-02    0.206E-01
RMM:   4    -0.232194802909E+04    0.39368E-03   -0.67413E-04  4865   0.151E-02    0.789E-02
RMM:   5    -0.232194794938E+04    0.79715E-04   -0.35829E-04  4564   0.135E-02    0.236E-02
RMM:   6    -0.232194794994E+04   -0.56569E-06   -0.33063E-05  2998   0.785E-03
  84 F= -.23425721E+04 E0= -.23425721E+04  d E =-.205746E-02  mag=     3.0000
       N       E                     dE             d eps       ncg     rms          rms(c)
DAV:   1    -0.232194714543E+04    0.80395E-03   -0.18950E-01  4464   0.424E-01    0.113E-01
RMM:   2    -0.232194801596E+04   -0.87053E-03   -0.93557E-03  5783   0.726E-02    0.769E-02
RMM:   3    -0.232194806163E+04   -0.45668E-04   -0.78982E-04  4176   0.224E-02    0.875E-02
RMM:   4    -0.232194798996E+04    0.71672E-04   -0.12159E-04  3026   0.733E-03    0.335E-02
RMM:   5    -0.232194797496E+04    0.14991E-04   -0.70149E-05  3541   0.666E-03    0.100E-02
RMM:   6    -0.232194797517E+04   -0.20939E-06   -0.90509E-06  2864   0.513E-03
  85 F= -.23425723E+04 E0= -.23425723E+04  d E =-.218340E-02  mag=     3.0000
       N       E                     dE             d eps       ncg     rms          rms(c)
DAV:   1    -0.232194604727E+04    0.19277E-02   -0.90344E-01  4432   0.932E-01    0.245E-01
RMM:   2    -0.232195006368E+04   -0.40164E-02   -0.43269E-02  5782   0.157E-01    0.170E-01
RMM:   3    -0.232195025822E+04   -0.19454E-03   -0.35492E-03  5207   0.463E-02    0.190E-01
RMM:   4    -0.232194991213E+04    0.34610E-03   -0.57218E-04  4782   0.141E-02    0.720E-02
RMM:   5    -0.232194984707E+04    0.65055E-04   -0.30624E-04  4477   0.127E-02    0.210E-02
RMM:   6    -0.232194984693E+04    0.14351E-06   -0.30081E-05  2967   0.772E-03
  86 F= -.23425743E+04 E0= -.23425743E+04  d E =-.202999E-02  mag=     3.0000
       N       E                     dE             d eps       ncg     rms          rms(c)
DAV:   1    -0.232194843416E+04    0.14129E-02   -0.37321E-01  4432   0.599E-01    0.158E-01
RMM:   2    -0.232195011266E+04   -0.16785E-02   -0.18000E-02  5779   0.102E-01    0.112E-01
RMM:   3    -0.232195018870E+04   -0.76040E-04   -0.14610E-03  4764   0.292E-02    0.123E-01
RMM:   4    -0.232195004453E+04    0.14417E-03   -0.23693E-04  3737   0.933E-03    0.465E-02
RMM:   5    -0.232195001597E+04    0.28557E-04   -0.12795E-04  4024   0.865E-03    0.137E-02
RMM:   6    -0.232195001626E+04   -0.28840E-06   -0.14784E-05  2885   0.611E-03
  87 F= -.23425746E+04 E0= -.23425746E+04  d E =-.230188E-02  mag=     3.0000
       N       E                     dE             d eps       ncg     rms          rms(c)
DAV:   1    -0.232194698850E+04    0.30275E-02   -0.96723E-01  4432   0.973E-01    0.261E-01
RMM:   2    -0.232195208747E+04   -0.50990E-02   -0.53975E-02  5817   0.169E-01    0.197E-01
RMM:   3    -0.232195229909E+04   -0.21162E-03   -0.43353E-03  5236   0.486E-02    0.204E-01
RMM:   4    -0.232195190056E+04    0.39853E-03   -0.65809E-04  4751   0.150E-02    0.760E-02
RMM:   5    -0.232195182607E+04    0.74484E-04   -0.33348E-04  4642   0.134E-02    0.237E-02
RMM:   6    -0.232195182709E+04   -0.10113E-05   -0.33539E-05  2988   0.777E-03
  88 F= -.23425765E+04 E0= -.23425765E+04  d E =-.199558E-02  mag=     3.0000
       N       E                     dE             d eps       ncg     rms          rms(c)
DAV:   1    -0.232195071786E+04    0.11082E-02   -0.23290E-01  4464   0.478E-01    0.129E-01
RMM:   2    -0.232195195921E+04   -0.12414E-02   -0.13068E-02  5833   0.839E-02    0.989E-02
RMM:   3    -0.232195200754E+04   -0.48326E-04   -0.11008E-03  4374   0.248E-02    0.993E-02
RMM:   4    -0.232195191344E+04    0.94096E-04   -0.16163E-04  3170   0.806E-03    0.378E-02
RMM:   5    -0.232195189450E+04    0.18937E-04   -0.85123E-05  3728   0.740E-03    0.115E-02
RMM:   6    -0.232195189481E+04   -0.30633E-06   -0.10513E-05  2872   0.537E-03
  89 F= -.23425767E+04 E0= -.23425767E+04  d E =-.215471E-02  mag=     3.0000
       N       E                     dE             d eps       ncg     rms          rms(c)
DAV:   1    -0.232194702409E+04    0.48704E-02   -0.11387E+00  4464   0.105E+00    0.297E-01
RMM:   2    -0.232195373109E+04   -0.67070E-02   -0.70516E-02  5878   0.188E-01    0.229E-01
RMM:   3    -0.232195399164E+04   -0.26056E-03   -0.57429E-03  5329   0.531E-02    0.231E-01
RMM:   4    -0.232195347186E+04    0.51978E-03   -0.84877E-04  4873   0.166E-02    0.821E-02
RMM:   5    -0.232195337948E+04    0.92373E-04   -0.41736E-04  4771   0.145E-02    0.272E-02
RMM:   6    -0.232195337908E+04    0.39792E-06   -0.44043E-05  3108   0.806E-03
  90 F= -.23425784E+04 E0= -.23425784E+04  d E =-.168731E-02  mag=     3.0000
       N       E                     dE             d eps       ncg     rms          rms(c)
DAV:   1    -0.232195212028E+04    0.12592E-02   -0.19297E-01  4544   0.432E-01    0.124E-01
RMM:   2    -0.232195327716E+04   -0.11569E-02   -0.12057E-02  5911   0.783E-02    0.992E-02
RMM:   3    -0.232195331064E+04   -0.33482E-04   -0.98961E-04  4219   0.226E-02    0.947E-02
RMM:   4    -0.232195322314E+04    0.87495E-04   -0.14424E-04  3118   0.773E-03    0.342E-02
RMM:   5    -0.232195320566E+04    0.17480E-04   -0.75661E-05  3668   0.694E-03    0.114E-02
RMM:   6    -0.232195320584E+04   -0.17857E-06   -0.10640E-05  2868   0.518E-03
  91 F= -.23425783E+04 E0= -.23425783E+04  d E =-.159860E-02  mag=     3.0000
       N       E                     dE             d eps       ncg     rms          rms(c)
DAV:   1    -0.232195304279E+04    0.16287E-03   -0.57310E-02  4576   0.235E-01    0.658E-02
RMM:   2    -0.232195336977E+04   -0.32698E-03   -0.34633E-03  5883   0.418E-02    0.493E-02
RMM:   3    -0.232195338332E+04   -0.13546E-04   -0.30178E-04  3296   0.142E-02    0.496E-02
RMM:   4    -0.232195335960E+04    0.23723E-04   -0.43796E-05  2895   0.507E-03    0.188E-02
RMM:   5    -0.232195335501E+04    0.45844E-05   -0.23189E-05  2949   0.408E-03
  92 F= -.23425784E+04 E0= -.23425784E+04  d E =-.170178E-02  mag=     3.0000
       N       E                     dE             d eps       ncg     rms          rms(c)
DAV:   1    -0.232194917837E+04    0.41812E-02   -0.90444E-01  4416   0.917E-01    0.265E-01
RMM:   2    -0.232195507209E+04   -0.58937E-02   -0.61853E-02  5894   0.168E-01    0.212E-01
RMM:   3    -0.232195523728E+04   -0.16520E-03   -0.48711E-03  5278   0.484E-02    0.205E-01
RMM:   4    -0.232195483036E+04    0.40692E-03   -0.71819E-04  4735   0.148E-02    0.746E-02
RMM:   5    -0.232195475257E+04    0.77784E-04   -0.34178E-04  4517   0.131E-02    0.252E-02
RMM:   6    -0.232195475135E+04    0.12282E-05   -0.40509E-05  3040   0.790E-03
  93 F= -.23425800E+04 E0= -.23425800E+04  d E =-.155191E-02  mag=     3.0000
       N       E                     dE             d eps       ncg     rms          rms(c)
DAV:   1    -0.232195402666E+04    0.72592E-03   -0.10487E-01  4464   0.313E-01    0.921E-02
RMM:   2    -0.232195472219E+04   -0.69554E-03   -0.72269E-03  6004   0.588E-02    0.761E-02
RMM:   3    -0.232195473963E+04   -0.17433E-04   -0.58002E-04  3715   0.173E-02    0.701E-02
RMM:   4    -0.232195469296E+04    0.46662E-04   -0.84847E-05  2952   0.635E-03    0.259E-02
RMM:   5    -0.232195468293E+04    0.10037E-04   -0.43519E-05  3170   0.545E-03    0.884E-03
RMM:   6    -0.232195468300E+04   -0.72338E-07   -0.72742E-06  2849   0.442E-03
  94 F= -.23425799E+04 E0= -.23425799E+04  d E =-.153747E-02  mag=     3.0000
       N       E                     dE             d eps       ncg     rms          rms(c)
DAV:   1    -0.232195175286E+04    0.29301E-02   -0.63854E-01  4464   0.772E-01    0.224E-01
RMM:   2    -0.232195610261E+04   -0.43497E-02   -0.45564E-02  5882   0.140E-01    0.173E-01
RMM:   3    -0.232195628209E+04   -0.17948E-03   -0.36325E-03  5190   0.396E-02    0.173E-01
RMM:   4    -0.232195600380E+04    0.27829E-03   -0.52509E-04  4415   0.120E-02    0.626E-02
RMM:   5    -0.232195595660E+04    0.47198E-04   -0.20067E-04  4149   0.102E-02    0.220E-02
RMM:   6    -0.232195595929E+04   -0.26889E-05   -0.27964E-05  2933   0.684E-03
  95 F= -.23425814E+04 E0= -.23425814E+04  d E =-.142717E-02  mag=     3.0000
       N       E                     dE             d eps       ncg     rms          rms(c)
DAV:   1    -0.232195003218E+04    0.59244E-02   -0.93128E-01  4448   0.933E-01    0.271E-01
RMM:   2    -0.232195639684E+04   -0.63647E-02   -0.66601E-02  5876   0.169E-01    0.210E-01
RMM:   3    -0.232195666584E+04   -0.26899E-03   -0.52765E-03  5376   0.443E-02    0.210E-01
RMM:   4    -0.232195625568E+04    0.41015E-03   -0.76686E-04  4713   0.143E-02    0.758E-02
RMM:   5    -0.232195618727E+04    0.68418E-04   -0.29025E-04  4363   0.119E-02    0.266E-02
RMM:   6    -0.232195619041E+04   -0.31442E-05   -0.41059E-05  2984   0.798E-03
  96 F= -.23425818E+04 E0= -.23425818E+04  d E =-.184432E-02  mag=     3.0000
       N       E                     dE             d eps       ncg     rms          rms(c)
DAV:   1    -0.232195201703E+04    0.41702E-02   -0.85704E-01  4432   0.899E-01    0.264E-01
RMM:   2    -0.232195785128E+04   -0.58342E-02   -0.61430E-02  5867   0.163E-01    0.193E-01
RMM:   3    -0.232195816206E+04   -0.31078E-03   -0.50042E-03  5346   0.496E-02    0.206E-01
RMM:   4    -0.232195777130E+04    0.39076E-03   -0.73547E-04  4745   0.144E-02    0.745E-02
RMM:   5    -0.232195770189E+04    0.69407E-04   -0.27734E-04  4362   0.121E-02    0.258E-02
RMM:   6    -0.232195770420E+04   -0.23053E-05   -0.37259E-05  2990   0.772E-03
  97 F= -.23425836E+04 E0= -.23425836E+04  d E =-.176471E-02  mag=     3.0000
       N       E                     dE             d eps       ncg     rms          rms(c)
DAV:   1    -0.232195635261E+04    0.13493E-02   -0.20282E-01  4448   0.438E-01    0.129E-01
RMM:   2    -0.232195774803E+04   -0.13954E-02   -0.14618E-02  5926   0.803E-02    0.969E-02
RMM:   3    -0.232195781463E+04   -0.66601E-04   -0.11946E-03  4294   0.249E-02    0.998E-02
RMM:   4    -0.232195772276E+04    0.91874E-04   -0.17402E-04  3082   0.791E-03    0.365E-02
RMM:   5    -0.232195770506E+04    0.17697E-04   -0.72051E-05  3523   0.675E-03    0.127E-02
RMM:   6    -0.232195770562E+04   -0.55885E-06   -0.11814E-05  2878   0.525E-03
  98 F= -.23425837E+04 E0= -.23425837E+04  d E =-.188974E-02  mag=     3.0000
       N       E                     dE             d eps       ncg     rms          rms(c)
DAV:   1    -0.232195478306E+04    0.29220E-02   -0.72561E-01  4416   0.835E-01    0.248E-01
RMM:   2    -0.232195928344E+04   -0.45004E-02   -0.47716E-02  5828   0.147E-01    0.165E-01
RMM:   3    -0.232195953529E+04   -0.25184E-03   -0.38004E-03  5237   0.446E-02    0.190E-01
RMM:   4    -0.232195920588E+04    0.32941E-03   -0.60811E-04  4685   0.136E-02    0.694E-02
RMM:   5    -0.232195914704E+04    0.58841E-04   -0.24277E-04  4277   0.116E-02    0.235E-02
RMM:   6    -0.232195914849E+04   -0.14564E-05   -0.32369E-05  2967   0.723E-03
  99 F= -.23425853E+04 E0= -.23425853E+04  d E =-.163228E-02  mag=     3.0000
[...]
RMM:   5    -0.232197509816E+04    0.41391E-05   -0.12285E-05  2877   0.288E-03
 167 F= -.23426075E+04 E0= -.23426075E+04  d E =-.276117E-03  mag=     3.0000
       N       E                     dE             d eps       ncg     rms          rms(c)
DAV:   1    -0.232197442435E+04    0.67795E-03   -0.77522E-02  4432   0.274E-01    0.942E-02
RMM:   2    -0.232197523966E+04   -0.81531E-03   -0.87834E-03  5994   0.585E-02    0.492E-02
RMM:   3    -0.232197527360E+04   -0.33933E-04   -0.71246E-04  3723   0.187E-02    0.472E-02
RMM:   4    -0.232197525774E+04    0.15857E-04   -0.10292E-04  2898   0.586E-03    0.297E-02
RMM:   5    -0.232197524436E+04    0.13379E-04   -0.31394E-05  2905   0.478E-03    0.108E-02
RMM:   6    -0.232197524314E+04    0.12159E-05   -0.10546E-05  2859   0.418E-03
 168 F= -.23426078E+04 E0= -.23426078E+04  d E =-.256661E-03  mag=     3.0000
       N       E                     dE             d eps       ncg     rms          rms(c)
DAV:   1    -0.232197517090E+04    0.73457E-04   -0.41679E-03  5136   0.638E-02    0.220E-02
RMM:   2    -0.232197521496E+04   -0.44055E-04   -0.47770E-04  5252   0.139E-02    0.108E-02
RMM:   3    -0.232197521637E+04   -0.14141E-05   -0.39478E-05  2843   0.566E-03
 169 F= -.23426078E+04 E0= -.23426078E+04  d E =-.255978E-03  mag=     3.0000
       N       E                     dE             d eps       ncg     rms          rms(c)
DAV:   1    -0.232197463163E+04    0.58333E-03   -0.66081E-02  4448   0.255E-01    0.881E-02
RMM:   2    -0.232197530465E+04   -0.67303E-03   -0.72675E-03  5920   0.538E-02    0.419E-02
RMM:   3    -0.232197531906E+04   -0.14413E-04   -0.57252E-04  3544   0.166E-02    0.259E-02
RMM:   4    -0.232197531203E+04    0.70300E-05   -0.86709E-05  3004   0.570E-03
 170 F= -.23426080E+04 E0= -.23426080E+04  d E =-.237776E-03  mag=     3.0000
       N       E                     dE             d eps       ncg     rms          rms(c)
DAV:   1    -0.232197521789E+04    0.10117E-03   -0.52488E-03  5216   0.723E-02    0.323E-02
RMM:   2    -0.232197529688E+04   -0.78986E-04   -0.62648E-04  5572   0.159E-02    0.543E-02
RMM:   3    -0.232197527018E+04    0.26700E-04   -0.71836E-05  2898   0.669E-03    0.138E-02
RMM:   4    -0.232197526782E+04    0.23571E-05   -0.83053E-06  2854   0.232E-03
 171 F= -.23426080E+04 E0= -.23426080E+04  d E =-.234355E-03  mag=     3.0000
       N       E                     dE             d eps       ncg     rms          rms(c)
DAV:   1    -0.232197465783E+04    0.61235E-03   -0.64173E-02  4432   0.251E-01    0.844E-02
RMM:   2    -0.232197530602E+04   -0.64819E-03   -0.69963E-03  5953   0.526E-02    0.436E-02
RMM:   3    -0.232197532890E+04   -0.22880E-04   -0.56565E-04  3472   0.164E-02    0.393E-02
RMM:   4    -0.232197531926E+04    0.96445E-05   -0.80717E-05  2883   0.544E-03
 172 F= -.23426082E+04 E0= -.23426082E+04  d E =-.219883E-03  mag=     3.0000
       N       E                     dE             d eps       ncg     rms          rms(c)
DAV:   1    -0.232197520966E+04    0.11925E-03   -0.48344E-03  5160   0.691E-02    0.260E-02
RMM:   2    -0.232197525841E+04   -0.48751E-04   -0.53893E-04  5437   0.148E-02    0.212E-02
RMM:   3    -0.232197526182E+04   -0.34153E-05   -0.66568E-05  2855   0.619E-03
 173 F= -.23426082E+04 E0= -.23426082E+04  d E =-.209880E-03  mag=     3.0000
       N       E                     dE             d eps       ncg     rms          rms(c)
DAV:   1    -0.232197462677E+04    0.63164E-03   -0.67005E-02  4432   0.260E-01    0.883E-02
RMM:   2    -0.232197529781E+04   -0.67105E-03   -0.72034E-03  5947   0.544E-02    0.458E-02
RMM:   3    -0.232197531977E+04   -0.21956E-04   -0.58610E-04  3517   0.170E-02    0.382E-02
RMM:   4    -0.232197531300E+04    0.67650E-05   -0.83980E-05  2893   0.559E-03
 174 F= -.23426084E+04 E0= -.23426084E+04  d E =-.211162E-03  mag=     3.0000
       N       E                     dE             d eps       ncg     rms          rms(c)
DAV:   1    -0.232197519115E+04    0.12862E-03   -0.60583E-03  5064   0.784E-02    0.297E-02
RMM:   2    -0.232197525610E+04   -0.64947E-04   -0.66226E-04  5624   0.165E-02    0.311E-02
RMM:   3    -0.232197525463E+04    0.14674E-05   -0.74617E-05  2862   0.662E-03
 175 F= -.23426084E+04 E0= -.23426084E+04  d E =-.201973E-03  mag=     3.0000
       N       E                     dE             d eps       ncg     rms          rms(c)
DAV:   1    -0.232197454957E+04    0.70653E-03   -0.72193E-02  4432   0.266E-01    0.929E-02
RMM:   2    -0.232197531634E+04   -0.76678E-03   -0.82232E-03  5977   0.568E-02    0.513E-02
RMM:   3    -0.232197534672E+04   -0.30376E-04   -0.67369E-04  3533   0.175E-02    0.478E-02
RMM:   4    -0.232197533031E+04    0.16412E-04   -0.97139E-05  2903   0.592E-03    0.297E-02
RMM:   5    -0.232197531866E+04    0.11644E-04   -0.32385E-05  2886   0.486E-03    0.121E-02
RMM:   6    -0.232197531739E+04    0.12774E-05   -0.11801E-05  2867   0.412E-03
 176 F= -.23426086E+04 E0= -.23426086E+04  d E =-.205482E-03  mag=     3.0000
       N       E                     dE             d eps       ncg     rms          rms(c)
DAV:   1    -0.232197524599E+04    0.72672E-04   -0.34705E-03  5128   0.585E-02    0.204E-02
RMM:   2    -0.232197528305E+04   -0.37057E-04   -0.39718E-04  4985   0.130E-02    0.110E-02
RMM:   3    -0.232197528492E+04   -0.18763E-05   -0.34797E-05  2826   0.545E-03
 177 F= -.23426086E+04 E0= -.23426086E+04  d E =-.204531E-03  mag=     3.0000
       N       E                     dE             d eps       ncg     rms          rms(c)
DAV:   1    -0.232197456604E+04    0.71701E-03   -0.70911E-02  4432   0.261E-01    0.894E-02
RMM:   2    -0.232197537929E+04   -0.81326E-03   -0.86659E-03  5950   0.567E-02    0.488E-02
RMM:   3    -0.232197541062E+04   -0.31329E-04   -0.69354E-04  3522   0.175E-02    0.424E-02
RMM:   4    -0.232197539995E+04    0.10674E-04   -0.97902E-05  2898   0.571E-03    0.303E-02
RMM:   5    -0.232197538772E+04    0.12224E-04   -0.31327E-05  2876   0.470E-03    0.119E-02
RMM:   6    -0.232197538634E+04    0.13848E-05   -0.10532E-05  2857   0.398E-03
 178 F= -.23426088E+04 E0= -.23426088E+04  d E =-.225298E-03  mag=     3.0000
       N       E                     dE             d eps       ncg     rms          rms(c)
DAV:   1    -0.232197522149E+04    0.16624E-03   -0.10389E-02  4736   0.100E-01    0.345E-02
RMM:   2    -0.232197534036E+04   -0.11888E-03   -0.12668E-03  5832   0.216E-02    0.197E-02
RMM:   3    -0.232197534614E+04   -0.57718E-05   -0.10679E-04  2907   0.833E-03    0.193E-02
RMM:   4    -0.232197534305E+04    0.30849E-05   -0.14814E-05  2847   0.260E-03
 179 F= -.23426088E+04 E0= -.23426088E+04  d E =-.229601E-03  mag=     3.0000
       N       E                     dE             d eps       ncg     rms          rms(c)
DAV:   1    -0.232197461421E+04    0.73192E-03   -0.71836E-02  4432   0.263E-01    0.919E-02
RMM:   2    -0.232197542290E+04   -0.80868E-03   -0.85764E-03  5958   0.562E-02    0.542E-02
RMM:   3    -0.232197546568E+04   -0.42784E-04   -0.73233E-04  3582   0.178E-02    0.572E-02
RMM:   4    -0.232197543509E+04    0.30595E-04   -0.10069E-04  2905   0.589E-03    0.260E-02
RMM:   5    -0.232197542513E+04    0.99514E-05   -0.28844E-05  2896   0.442E-03
 180 F= -.23426091E+04 E0= -.23426091E+04  d E =-.221979E-03  mag=     3.0000
       N       E                     dE             d eps       ncg     rms          rms(c)
DAV:   1    -0.232197519642E+04    0.23867E-03   -0.14822E-02  4736   0.120E-01    0.425E-02
RMM:   2    -0.232197536779E+04   -0.17137E-03   -0.18245E-03  5985   0.272E-02    0.239E-02
RMM:   3    -0.232197537660E+04   -0.88075E-05   -0.14970E-04  2913   0.868E-03    0.249E-02
RMM:   4    -0.232197537129E+04    0.53048E-05   -0.21892E-05  2859   0.324E-03
 181 F= -.23426091E+04 E0= -.23426091E+04  d E =-.232349E-03  mag=     3.0000
       N       E                     dE             d eps       ncg     rms          rms(c)
DAV:   1    -0.232197453989E+04    0.83671E-03   -0.74597E-02  4416   0.266E-01    0.901E-02
RMM:   2    -0.232197542626E+04   -0.88638E-03   -0.93784E-03  6010   0.578E-02    0.558E-02
RMM:   3    -0.232197547104E+04   -0.44775E-04   -0.79761E-04  3612   0.185E-02    0.559E-02
RMM:   4    -0.232197544333E+04    0.27707E-04   -0.10889E-04  2905   0.593E-03    0.274E-02
RMM:   5    -0.232197543207E+04    0.11265E-04   -0.30599E-05  2894   0.457E-03    0.107E-02
RMM:   6    -0.232197543102E+04    0.10446E-05   -0.10605E-05  2865   0.401E-03
 182 F= -.23426093E+04 E0= -.23426093E+04  d E =-.238505E-03  mag=     3.0000
       N       E                     dE             d eps       ncg     rms          rms(c)
DAV:   1    -0.232197520298E+04    0.22909E-03   -0.13366E-02  4752   0.113E-01    0.386E-02
RMM:   2    -0.232197536248E+04   -0.15951E-03   -0.16925E-03  5844   0.244E-02    0.225E-02
RMM:   3    -0.232197537080E+04   -0.83114E-05   -0.14599E-04  2935   0.939E-03    0.222E-02
RMM:   4    -0.232197536674E+04    0.40575E-05   -0.19998E-05  2855   0.287E-03
 183 F= -.23426093E+04 E0= -.23426093E+04  d E =-.250016E-03  mag=     3.0000
       N       E                     dE             d eps       ncg     rms          rms(c)
DAV:   1    -0.232197446211E+04    0.90869E-03   -0.80979E-02  4416   0.275E-01    0.965E-02
RMM:   2    -0.232197542796E+04   -0.96585E-03   -0.10247E-02  5987   0.602E-02    0.577E-02
RMM:   3    -0.232197547737E+04   -0.49409E-04   -0.87000E-04  3663   0.192E-02    0.592E-02
RMM:   4    -0.232197544622E+04    0.31147E-04   -0.11879E-04  2905   0.616E-03    0.285E-02
RMM:   5    -0.232197543430E+04    0.11921E-04   -0.33602E-05  2908   0.473E-03    0.110E-02
RMM:   6    -0.232197543325E+04    0.10466E-05   -0.10586E-05  2869   0.410E-03
 184 F= -.23426096E+04 E0= -.23426096E+04  d E =-.250363E-03  mag=     3.0000
       N       E                     dE             d eps       ncg     rms          rms(c)
DAV:   1    -0.232197520341E+04    0.23089E-03   -0.13356E-02  4728   0.112E-01    0.395E-02
RMM:   2    -0.232197536342E+04   -0.16002E-03   -0.17007E-03  5855   0.245E-02    0.222E-02
RMM:   3    -0.232197537186E+04   -0.84323E-05   -0.14669E-04  2931   0.939E-03    0.224E-02
RMM:   4    -0.232197536774E+04    0.41119E-05   -0.19989E-05  2856   0.287E-03
 185 F= -.23426096E+04 E0= -.23426096E+04  d E =-.259613E-03  mag=     3.0000
       N       E                     dE             d eps       ncg     rms          rms(c)
DAV:   1    -0.232197451574E+04    0.85612E-03   -0.76392E-02  4416   0.261E-01    0.897E-02
RMM:   2    -0.232197545349E+04   -0.93775E-03   -0.99113E-03  6000   0.577E-02    0.553E-02
RMM:   3    -0.232197550131E+04   -0.47820E-04   -0.84253E-04  3553   0.182E-02    0.546E-02
RMM:   4    -0.232197547630E+04    0.25001E-04   -0.11222E-04  2902   0.583E-03    0.280E-02
RMM:   5    -0.232197546496E+04    0.11340E-04   -0.30190E-05  2905   0.442E-03    0.108E-02
RMM:   6    -0.232197546401E+04    0.95191E-06   -0.93965E-06  2866   0.381E-03
 186 F= -.23426098E+04 E0= -.23426098E+04  d E =-.256008E-03  mag=     3.0000
       N       E                     dE             d eps       ncg     rms          rms(c)
DAV:   1    -0.232197493185E+04    0.53311E-03   -0.35584E-02  4448   0.178E-01    0.616E-02
RMM:   2    -0.232197536976E+04   -0.43791E-03   -0.46411E-03  5918   0.391E-02    0.358E-02
RMM:   3    -0.232197539184E+04   -0.22077E-04   -0.39249E-04  3128   0.140E-02    0.346E-02
RMM:   4    -0.232197538247E+04    0.93663E-05   -0.51585E-05  2872   0.419E-03
 187 F= -.23426099E+04 E0= -.23426099E+04  d E =-.283472E-03  mag=     3.0000
       N       E                     dE             d eps       ncg     rms          rms(c)
DAV:   1    -0.232197464271E+04    0.74912E-03   -0.72853E-02  4448   0.254E-01    0.874E-02
RMM:   2    -0.232197548168E+04   -0.83896E-03   -0.89029E-03  5997   0.547E-02    0.525E-02
RMM:   3    -0.232197552636E+04   -0.44687E-04   -0.77907E-04  3522   0.179E-02    0.526E-02
RMM:   4    -0.232197550384E+04    0.22527E-04   -0.10557E-04  2902   0.569E-03    0.281E-02
RMM:   5    -0.232197549272E+04    0.11120E-04   -0.30301E-05  2907   0.439E-03    0.102E-02
RMM:   6    -0.232197549222E+04    0.49229E-06   -0.88257E-06  2859   0.379E-03
 188 F= -.23426101E+04 E0= -.23426101E+04  d E =-.247704E-03  mag=     3.0000
       N       E                     dE             d eps       ncg     rms          rms(c)
DAV:   1    -0.232197503728E+04    0.45543E-03   -0.32976E-02  4464   0.171E-01    0.588E-02
RMM:   2    -0.232197541998E+04   -0.38270E-03   -0.40743E-03  5913   0.367E-02    0.322E-02
RMM:   3    -0.232197543827E+04   -0.18288E-04   -0.34245E-04  3115   0.133E-02    0.299E-02
RMM:   4    -0.232197543227E+04    0.59960E-05   -0.46062E-05  2871   0.396E-03
 189 F= -.23426101E+04 E0= -.23426101E+04  d E =-.280457E-03  mag=     3.0000
       N       E                     dE             d eps       ncg     rms          rms(c)
DAV:   1    -0.232197470173E+04    0.73653E-03   -0.82652E-02  4416   0.278E-01    0.961E-02
RMM:   2    -0.232197557822E+04   -0.87649E-03   -0.93966E-03  5949   0.581E-02    0.529E-02
RMM:   3    -0.232197562173E+04   -0.43509E-04   -0.81618E-04  3744   0.201E-02    0.526E-02
RMM:   4    -0.232197560081E+04    0.20921E-04   -0.11554E-04  2902   0.610E-03    0.310E-02
RMM:   5    -0.232197558724E+04    0.13573E-04   -0.34566E-05  2916   0.489E-03    0.107E-02
RMM:   6    -0.232197558672E+04    0.51282E-06   -0.10708E-05  2861   0.427E-03
 190 F= -.23426104E+04 E0= -.23426104E+04  d E =-.281213E-03  mag=     3.0000
       N       E                     dE             d eps       ncg     rms          rms(c)
DAV:   1    -0.232197537211E+04    0.21512E-03   -0.15729E-02  4672   0.121E-01    0.421E-02
RMM:   2    -0.232197554046E+04   -0.16835E-03   -0.18084E-03  5858   0.254E-02    0.209E-02
RMM:   3    -0.232197554732E+04   -0.68583E-05   -0.15112E-04  2931   0.991E-03    0.174E-02
RMM:   4    -0.232197554625E+04    0.10655E-05   -0.21885E-05  2865   0.294E-03
 191 F= -.23426104E+04 E0= -.23426104E+04  d E =-.296061E-03  mag=     3.0000
       N       E                     dE             d eps       ncg     rms          rms(c)
DAV:   1    -0.232197487053E+04    0.67679E-03   -0.73350E-02  4448   0.261E-01    0.925E-02
RMM:   2    -0.232197565055E+04   -0.78001E-03   -0.83779E-03  5932   0.546E-02    0.482E-02
RMM:   3    -0.232197568731E+04   -0.36763E-04   -0.71700E-04  3606   0.185E-02    0.467E-02
RMM:   4    -0.232197567289E+04    0.14420E-04   -0.10241E-04  2896   0.580E-03    0.300E-02
RMM:   5    -0.232197566048E+04    0.12413E-04   -0.29784E-05  2893   0.460E-03    0.101E-02
RMM:   6    -0.232197565999E+04    0.48940E-06   -0.91987E-06  2853   0.397E-03
 192 F= -.23426107E+04 E0= -.23426107E+04  d E =-.249598E-03  mag=     3.0000
       N       E                     dE             d eps       ncg     rms          rms(c)
DAV:   1    -0.232197546732E+04    0.19315E-03   -0.13118E-02  4632   0.110E-01    0.392E-02
RMM:   2    -0.232197560849E+04   -0.14117E-03   -0.15181E-03  5821   0.232E-02    0.188E-02
RMM:   3    -0.232197561354E+04   -0.50499E-05   -0.12372E-04  2922   0.921E-03    0.142E-02
RMM:   4    -0.232197561342E+04    0.12206E-06   -0.18306E-05  2859   0.271E-03
 193 F= -.23426107E+04 E0= -.23426107E+04  d E =-.260606E-03  mag=     3.0000
       N       E                     dE             d eps       ncg     rms          rms(c)
DAV:   1    -0.232197481340E+04    0.80014E-03   -0.82146E-02  4416   0.274E-01    0.960E-02
RMM:   2    -0.232197569451E+04   -0.88111E-03   -0.94497E-03  5939   0.576E-02    0.511E-02
RMM:   3    -0.232197573580E+04   -0.41284E-04   -0.81077E-04  3702   0.194E-02    0.495E-02
RMM:   4    -0.232197571922E+04    0.16580E-04   -0.11230E-04  2898   0.596E-03    0.316E-02
RMM:   5    -0.232197570513E+04    0.14083E-04   -0.33935E-05  2914   0.483E-03    0.107E-02
RMM:   6    -0.232197570450E+04    0.63100E-06   -0.99171E-06  2849   0.419E-03
 194 F= -.23426109E+04 E0= -.23426109E+04  d E =-.243399E-03  mag=     3.0000
       N       E                     dE             d eps       ncg     rms          rms(c)
DAV:   1    -0.232197558146E+04    0.12367E-03   -0.72194E-03  4832   0.813E-02    0.288E-02
RMM:   2    -0.232197565989E+04   -0.78432E-04   -0.84383E-04  5642   0.173E-02    0.139E-02
RMM:   3    -0.232197566263E+04   -0.27380E-05   -0.69007E-05  2875   0.697E-03
 195 F= -.23426109E+04 E0= -.23426109E+04  d E =-.246892E-03  mag=     3.0000
       N       E                     dE             d eps       ncg     rms          rms(c)
DAV:   1    -0.232197489144E+04    0.76846E-03   -0.84405E-02  4416   0.281E-01    0.992E-02
RMM:   2    -0.232197575136E+04   -0.85992E-03   -0.92537E-03  5947   0.587E-02    0.470E-02
RMM:   3    -0.232197577472E+04   -0.23360E-04   -0.73634E-04  3690   0.183E-02    0.339E-02
RMM:   4    -0.232197578176E+04   -0.70424E-05   -0.11675E-04  2946   0.602E-03    0.406E-02
RMM:   5    -0.232197576311E+04    0.18646E-04   -0.34425E-05  2901   0.480E-03    0.124E-02
RMM:   6    -0.232197576220E+04    0.91715E-06   -0.10381E-05  2855   0.390E-03
 196 F= -.23426112E+04 E0= -.23426112E+04  d E =-.254576E-03  mag=     3.0000
       N       E                     dE             d eps       ncg     rms          rms(c)
DAV:   1    -0.232197562025E+04    0.14286E-03   -0.89693E-03  4840   0.917E-02    0.326E-02
RMM:   2    -0.232197571307E+04   -0.92819E-04   -0.99728E-04  5773   0.200E-02    0.156E-02
RMM:   3    -0.232197571651E+04   -0.34414E-05   -0.81748E-05  2874   0.734E-03
 197 F= -.23426112E+04 E0= -.23426112E+04  d E =-.259732E-03  mag=     3.0000
       N       E                     dE             d eps       ncg     rms          rms(c)
DAV:   1    -0.232197492259E+04    0.79049E-03   -0.88220E-02  4448   0.287E-01    0.974E-02
RMM:   2    -0.232197580863E+04   -0.88604E-03   -0.95455E-03  5951   0.597E-02    0.482E-02
RMM:   3    -0.232197583095E+04   -0.22326E-04   -0.75985E-04  3682   0.185E-02    0.324E-02
RMM:   4    -0.232197583726E+04   -0.63058E-05   -0.12080E-04  2948   0.619E-03    0.401E-02
RMM:   5    -0.232197581999E+04    0.17274E-04   -0.34301E-05  2885   0.486E-03    0.143E-02
RMM:   6    -0.232197581842E+04    0.15707E-05   -0.11404E-05  2854   0.376E-03
 198 F= -.23426115E+04 E0= -.23426115E+04  d E =-.246869E-03  mag=     3.0000
       N       E                     dE             d eps       ncg     rms          rms(c)
DAV:   1    -0.232197567461E+04    0.14537E-03   -0.94998E-03  4760   0.943E-02    0.320E-02
RMM:   2    -0.232197577144E+04   -0.96830E-04   -0.10424E-03  5781   0.205E-02    0.161E-02
RMM:   3    -0.232197577489E+04   -0.34490E-05   -0.84295E-05  2873   0.735E-03
 199 F= -.23426115E+04 E0= -.23426115E+04  d E =-.251179E-03  mag=     3.0000
       N       E                     dE             d eps       ncg     rms          rms(c)
DAV:   1    -0.232197491459E+04    0.85686E-03   -0.93690E-02  4448   0.294E-01    0.995E-02
RMM:   2    -0.232197587870E+04   -0.96411E-03   -0.10363E-02  5948   0.617E-02    0.494E-02
RMM:   3    -0.232197590305E+04   -0.24355E-04   -0.81452E-04  3706   0.191E-02    0.317E-02
RMM:   4    -0.232197590398E+04   -0.92655E-06   -0.12468E-04  3015   0.633E-03    0.340E-02
RMM:   5    -0.232197589419E+04    0.97875E-05   -0.32217E-05  2872   0.487E-03
 200 F= -.23426117E+04 E0= -.23426117E+04  d E =-.269204E-03  mag=     3.0000
       N       E                     dE             d eps       ncg     rms          rms(c)
DAV:   1    -0.232197557813E+04    0.32584E-03   -0.23206E-02  4560   0.147E-01    0.495E-02
RMM:   2    -0.232197581481E+04   -0.23668E-03   -0.25418E-03  5981   0.314E-02    0.251E-02
RMM:   3    -0.232197582726E+04   -0.12449E-04   -0.23811E-04  2964   0.105E-02    0.226E-02
RMM:   4    -0.232197582533E+04    0.19279E-05   -0.31398E-05  2868   0.334E-03
 201 F= -.23426117E+04 E0= -.23426117E+04  d E =-.275670E-03  mag=     3.0000
