       N       E                     dE             d eps       ncg     rms          rms(c)
DAV:   1     0.125422078519E+05    0.12542E+05   -0.81917E+05  4376   0.143E+03
DAV:   2    -0.107479559441E+04   -0.13617E+05   -0.13070E+05  5320   0.330E+02
DAV:   3    -0.246891994040E+04   -0.13941E+04   -0.13832E+04  5248   0.109E+02
DAV:   4    -0.250672664439E+04   -0.37807E+02   -0.37633E+02  6264   0.250E+01
DAV:   5    -0.250749052881E+04   -0.76388E+00   -0.76291E+00  5504   0.293E+00    0.170E+02
RMM:   6    -0.147168714370E+04    0.10358E+04   -0.19618E+03  4344   0.394E+01    0.740E+01
RMM:   7    -0.163726255282E+04   -0.16558E+03   -0.29521E+02  4957   0.145E+01    0.536E+01
RMM:   8    -0.167688065319E+04   -0.39618E+02   -0.53661E+01  4900   0.759E+00    0.368E+01
RMM:   9    -0.182225296575E+04   -0.14537E+03   -0.75219E+01  4567   0.885E+00    0.263E+01
RMM:  10    -0.195171436805E+04   -0.12946E+03   -0.50181E+01  4599   0.691E+00    0.171E+01
RMM:  11    -0.206153059099E+04   -0.10982E+03   -0.52700E+01  4387   0.553E+00    0.132E+01
RMM:  12    -0.221344465007E+04   -0.15191E+03   -0.13197E+02  4343   0.822E+00    0.770E+00
RMM:  13    -0.227929714501E+04   -0.65852E+02   -0.65517E+01  4355   0.556E+00    0.460E+00
RMM:  14    -0.229201092076E+04   -0.12714E+02   -0.14219E+01  4719   0.333E+00    0.565E+00
RMM:  15    -0.229218582454E+04   -0.17490E+00   -0.21065E+00  5267   0.109E+00    0.617E+00
RMM:  16    -0.229350108123E+04   -0.13153E+01   -0.61039E-01  4437   0.584E-01    0.620E+00
RMM:  17    -0.229655995792E+04   -0.30589E+01   -0.10082E+00  4338   0.664E-01    0.479E+00
RMM:  18    -0.229743732833E+04   -0.87737E+00   -0.90012E-01  4355   0.705E-01    0.309E+00
RMM:  19    -0.229764973684E+04   -0.21241E+00   -0.29627E-01  4752   0.515E-01    0.180E+00
RMM:  20    -0.229784666449E+04   -0.19693E+00   -0.31184E-01  4343   0.411E-01    0.483E-01
RMM:  21    -0.229792149593E+04   -0.74831E-01   -0.51041E-02  4612   0.258E-01    0.304E-01
RMM:  22    -0.229798234267E+04   -0.60847E-01   -0.28977E-02  4479   0.129E-01    0.199E-01
RMM:  23    -0.229801678346E+04   -0.34441E-01   -0.96228E-03  4394   0.103E-01    0.114E-01
RMM:  24    -0.229803447743E+04   -0.17694E-01   -0.62813E-03  4379   0.584E-02    0.108E-01
RMM:  25    -0.229804430969E+04   -0.98323E-02   -0.32608E-03  4388   0.513E-02    0.887E-02
RMM:  26    -0.229804881057E+04   -0.45009E-02   -0.17502E-03  4643   0.307E-02    0.363E-02
RMM:  27    -0.229805005778E+04   -0.12472E-02   -0.37318E-04  3938   0.196E-02    0.183E-02
RMM:  28    -0.229805068969E+04   -0.63191E-03   -0.19336E-04  3819   0.924E-03    0.128E-02
RMM:  29    -0.229805085910E+04   -0.16940E-03   -0.47522E-05  3445   0.730E-03    0.515E-03
RMM:  30    -0.229805096894E+04   -0.10985E-03   -0.39975E-05  3305   0.482E-03    0.530E-03
RMM:  31    -0.229805099662E+04   -0.27673E-04   -0.72161E-06  2783   0.410E-03    0.335E-03
RMM:  32    -0.229805100712E+04   -0.10501E-04   -0.66306E-06  2774   0.230E-03    0.211E-03
RMM:  33    -0.229805100865E+04   -0.15353E-05   -0.15929E-06  2477   0.201E-03
   1 F= -.23180535E+04 E0= -.23180535E+04  d E =-.231805E+04  mag=     1.0001
       N       E                     dE             d eps       ncg     rms          rms(c)
DAV:   1    -0.229785112660E+04    0.19988E+00   -0.17897E+01  4800   0.375E+00    0.142E+00
RMM:   2    -0.229819068215E+04   -0.33956E+00   -0.35623E+00  6376   0.116E+00    0.104E+00
RMM:   3    -0.229818814010E+04    0.25421E-02   -0.21164E-01  5708   0.258E-01    0.613E-01
RMM:   4    -0.229818543042E+04    0.27097E-02   -0.28030E-02  4958   0.658E-02    0.427E-01
RMM:   5    -0.229818267807E+04    0.27523E-02   -0.11664E-02  5372   0.706E-02    0.112E-01
RMM:   6    -0.229818289534E+04   -0.21727E-03   -0.11432E-03  5160   0.270E-02    0.538E-02
RMM:   7    -0.229818304991E+04   -0.15457E-03   -0.18779E-04  4107   0.928E-03    0.361E-02
RMM:   8    -0.229818320461E+04   -0.15470E-03   -0.14040E-04  3786   0.948E-03    0.134E-02
RMM:   9    -0.229818323352E+04   -0.28917E-04   -0.31970E-05  2952   0.512E-03    0.853E-03
RMM:  10    -0.229818324922E+04   -0.15696E-04   -0.14169E-05  2811   0.423E-03    0.494E-03
RMM:  11    -0.229818326068E+04   -0.11455E-04   -0.10505E-05  2784   0.366E-03    0.310E-03
RMM:  12    -0.229818326523E+04   -0.45594E-05   -0.57661E-06  2773   0.316E-03
   2 F= -.23181867E+04 E0= -.23181867E+04  d E =-.133267E+00  mag=     1.0000
       N       E                     dE             d eps       ncg     rms          rms(c)
DAV:   1    -0.229818182662E+04    0.14341E-02   -0.18424E-01  4884   0.374E-01    0.142E-01
RMM:   2    -0.229818486489E+04   -0.30383E-02   -0.32427E-02  5904   0.102E-01    0.843E-02
RMM:   3    -0.229818506645E+04   -0.20156E-03   -0.33985E-03  4204   0.607E-02    0.538E-02
RMM:   4    -0.229818507431E+04   -0.78636E-05   -0.36132E-04  3955   0.941E-03    0.434E-02
RMM:   5    -0.229818504541E+04    0.28897E-04   -0.84708E-05  3168   0.732E-03    0.147E-02
RMM:   6    -0.229818504626E+04   -0.84312E-06   -0.15593E-05  2827   0.436E-03
   3 F= -.23181884E+04 E0= -.23181884E+04  d E =-.134954E+00  mag=     1.0000
       N       E                     dE             d eps       ncg     rms          rms(c)
DAV:   1    -0.229820301945E+04   -0.17974E-01   -0.58768E+00  4464   0.238E+00    0.734E-01
RMM:   2    -0.229823833806E+04   -0.35319E-01   -0.40577E-01  6170   0.456E-01    0.298E-01
RMM:   3    -0.229823980346E+04   -0.14654E-02   -0.39855E-02  5402   0.130E-01    0.227E-01
RMM:   4    -0.229823987504E+04   -0.71582E-04   -0.47400E-03  5092   0.407E-02    0.179E-01
RMM:   5    -0.229823922157E+04    0.65347E-03   -0.99290E-04  4609   0.222E-02    0.574E-02
RMM:   6    -0.229823918908E+04    0.32486E-04   -0.26296E-04  4420   0.146E-02    0.195E-02
RMM:   7    -0.229823918086E+04    0.82244E-05   -0.30486E-05  2993   0.692E-03
   4 F= -.23182439E+04 E0= -.23182439E+04  d E =-.554529E-01  mag=     1.0000
       N       E                     dE             d eps       ncg     rms          rms(c)
DAV:   1    -0.229821520135E+04    0.23988E-01   -0.66940E+00  4432   0.255E+00    0.780E-01
RMM:   2    -0.229825569475E+04   -0.40493E-01   -0.46439E-01  6149   0.489E-01    0.315E-01
RMM:   3    -0.229825723841E+04   -0.15437E-02   -0.44540E-02  5405   0.137E-01    0.238E-01
RMM:   4    -0.229825732897E+04   -0.90555E-04   -0.53711E-03  5092   0.432E-02    0.190E-01
RMM:   5    -0.229825658832E+04    0.74065E-03   -0.11249E-03  4656   0.238E-02    0.607E-02
RMM:   6    -0.229825655201E+04    0.36313E-04   -0.30675E-04  4453   0.156E-02    0.212E-02
RMM:   7    -0.229825654174E+04    0.10266E-04   -0.36063E-05  3090   0.742E-03    0.125E-02
RMM:   8    -0.229825653911E+04    0.26286E-05   -0.12879E-05  2804   0.384E-03
   5 F= -.23182625E+04 E0= -.23182625E+04  d E =-.741041E-01  mag=     1.0000
       N       E                     dE             d eps       ncg     rms          rms(c)
DAV:   1    -0.229828481403E+04   -0.28272E-01   -0.35472E+00  4432   0.165E+00    0.373E-01
RMM:   2    -0.229829458448E+04   -0.97705E-02   -0.11093E-01  5872   0.260E-01    0.189E-01
RMM:   3    -0.229829448687E+04    0.97610E-04   -0.77775E-03  4983   0.839E-02    0.123E-01
RMM:   4    -0.229829430849E+04    0.17838E-03   -0.12425E-03  4436   0.259E-02    0.590E-02
RMM:   5    -0.229829429502E+04    0.13469E-04   -0.26656E-04  4174   0.165E-02    0.297E-02
RMM:   6    -0.229829428549E+04    0.95252E-05   -0.58987E-05  3186   0.753E-03
   6 F= -.23183010E+04 E0= -.23183010E+04  d E =-.384697E-01  mag=     1.0000
       N       E                     dE             d eps       ncg     rms          rms(c)
DAV:   1    -0.229825162399E+04    0.42671E-01   -0.28489E+01  4352   0.468E+00    0.106E+00
RMM:   2    -0.229833250142E+04   -0.80877E-01   -0.91433E-01  5849   0.740E-01    0.535E-01
RMM:   3    -0.229833143198E+04    0.10694E-02   -0.62562E-02  4996   0.243E-01    0.361E-01
RMM:   4    -0.229833065516E+04    0.77682E-03   -0.10183E-02  4792   0.750E-02    0.247E-01
RMM:   5    -0.229833006639E+04    0.58878E-03   -0.31828E-03  5275   0.440E-02    0.154E-01
RMM:   6    -0.229832972176E+04    0.34463E-03   -0.77629E-04  4912   0.231E-02    0.389E-02
RMM:   7    -0.229832969577E+04    0.25984E-04   -0.10122E-04  3981   0.996E-03    0.211E-02
RMM:   8    -0.229832968281E+04    0.12960E-04   -0.35844E-05  3091   0.584E-03    0.909E-03
RMM:   9    -0.229832968055E+04    0.22655E-05   -0.13196E-05  2808   0.429E-03
   7 F= -.23183380E+04 E0= -.23183380E+04  d E =-.754419E-01  mag=     1.0000
       N       E                     dE             d eps       ncg     rms          rms(c)
DAV:   1    -0.229831462240E+04    0.15060E-01   -0.56710E+00  4448   0.215E+00    0.638E-01
RMM:   2    -0.229837055229E+04   -0.55930E-01   -0.58048E-01  6279   0.461E-01    0.591E-01
RMM:   3    -0.229836628243E+04    0.42699E-02   -0.40341E-02  5399   0.119E-01    0.232E-01
RMM:   4    -0.229836575963E+04    0.52280E-03   -0.46591E-03  4506   0.300E-02    0.146E-01
RMM:   5    -0.229836543620E+04    0.32343E-03   -0.13787E-03  4601   0.290E-02    0.495E-02
RMM:   6    -0.229836541541E+04    0.20781E-04   -0.20326E-04  3958   0.138E-02    0.208E-02
RMM:   7    -0.229836540765E+04    0.77658E-05   -0.31408E-05  2912   0.442E-03
   8 F= -.23183747E+04 E0= -.23183747E+04  d E =-.367762E-01  mag=     1.0000
       N       E                     dE             d eps       ncg     rms          rms(c)
DAV:   1    -0.229794170738E+04    0.42371E+00   -0.50918E+01  4360   0.647E+00    0.191E+00
RMM:   2    -0.229845749522E+04   -0.51579E+00   -0.53459E+00  6263   0.146E+00    0.171E+00
RMM:   3    -0.229841686565E+04    0.40630E-01   -0.40688E-01  5281   0.388E-01    0.680E-01
RMM:   4    -0.229841383549E+04    0.30302E-02   -0.49522E-02  4806   0.972E-02    0.433E-01
RMM:   5    -0.229841142797E+04    0.24075E-02   -0.11461E-02  4662   0.802E-02    0.206E-01
RMM:   6    -0.229841089907E+04    0.52890E-03   -0.24855E-03  5050   0.429E-02    0.670E-02
RMM:   7    -0.229841080699E+04    0.92077E-04   -0.39874E-04  4222   0.111E-02    0.401E-02
RMM:   8    -0.229841078741E+04    0.19583E-04   -0.88815E-05  3118   0.856E-03    0.145E-02
RMM:   9    -0.229841078557E+04    0.18319E-05   -0.18816E-05  2824   0.405E-03
   9 F= -.23184226E+04 E0= -.23184226E+04  d E =-.846614E-01  mag=     1.0000
       N       E                     dE             d eps       ncg     rms          rms(c)
DAV:   1    -0.229838279763E+04    0.27990E-01   -0.42684E+00  4432   0.185E+00    0.724E-01
RMM:   2    -0.229845260808E+04   -0.69810E-01   -0.72645E-01  6236   0.495E-01    0.625E-01
RMM:   3    -0.229844784117E+04    0.47669E-02   -0.57214E-02  5075   0.139E-01    0.256E-01
RMM:   4    -0.229844725928E+04    0.58190E-03   -0.66889E-03  4661   0.347E-02    0.159E-01
RMM:   5    -0.229844686290E+04    0.39637E-03   -0.15553E-03  4753   0.303E-02    0.638E-02
RMM:   6    -0.229844683177E+04    0.31131E-04   -0.30094E-04  4564   0.144E-02    0.259E-02
RMM:   7    -0.229844683042E+04    0.13518E-05   -0.57045E-05  3132   0.563E-03
  10 F= -.23184597E+04 E0= -.23184597E+04  d E =-.370852E-01  mag=     1.0000
       N       E                     dE             d eps       ncg     rms          rms(c)
DAV:   1    -0.229840824675E+04    0.38585E-01   -0.31481E+00  4400   0.160E+00    0.618E-01
RMM:   2    -0.229845907044E+04   -0.50824E-01   -0.53204E-01  6254   0.428E-01    0.511E-01
RMM:   3    -0.229845624098E+04    0.28295E-02   -0.44376E-02  5023   0.125E-01    0.218E-01
RMM:   4    -0.229845581110E+04    0.42988E-03   -0.50122E-03  4658   0.304E-02    0.134E-01
RMM:   5    -0.229845552687E+04    0.28422E-03   -0.11188E-03  4720   0.264E-02    0.574E-02
RMM:   6    -0.229845550438E+04    0.22497E-04   -0.23042E-04  4316   0.127E-02    0.223E-02
RMM:   7    -0.229845550953E+04   -0.51535E-05   -0.46484E-05  3016   0.546E-03
  11 F= -.23184693E+04 E0= -.23184693E+04  d E =-.466242E-01  mag=     1.0000
       N       E                     dE             d eps       ncg     rms          rms(c)
DAV:   1    -0.229844877806E+04    0.67263E-02   -0.47559E+00  4400   0.199E+00    0.674E-01
RMM:   2    -0.229848947017E+04   -0.40692E-01   -0.43570E-01  6171   0.434E-01    0.458E-01
RMM:   3    -0.229848770590E+04    0.17643E-02   -0.31789E-02  5375   0.119E-01    0.232E-01
RMM:   4    -0.229848710342E+04    0.60248E-03   -0.41925E-03  4655   0.306E-02    0.140E-01
RMM:   5    -0.229848684424E+04    0.25917E-03   -0.12185E-03  4897   0.280E-02    0.399E-02
RMM:   6    -0.229848684846E+04   -0.42120E-05   -0.14720E-04  4056   0.122E-02    0.205E-02
RMM:   7    -0.229848684767E+04    0.78534E-06   -0.31020E-05  2883   0.487E-03
  12 F= -.23185008E+04 E0= -.23185008E+04  d E =-.315725E-01  mag=     1.0000
       N       E                     dE             d eps       ncg     rms          rms(c)
DAV:   1    -0.229843947517E+04    0.47373E-01   -0.77350E+00  4380   0.253E+00    0.854E-01
RMM:   2    -0.229850521224E+04   -0.65737E-01   -0.70273E-01  6200   0.552E-01    0.581E-01
RMM:   3    -0.229850240338E+04    0.28089E-02   -0.52311E-02  5376   0.151E-01    0.293E-01
RMM:   4    -0.229850143520E+04    0.96818E-03   -0.66639E-03  4639   0.387E-02    0.178E-01
RMM:   5    -0.229850101405E+04    0.42115E-03   -0.19345E-03  4916   0.354E-02    0.524E-02
RMM:   6    -0.229850101392E+04    0.13766E-06   -0.25124E-04  4509   0.156E-02    0.265E-02
RMM:   7    -0.229850100706E+04    0.68573E-05   -0.50086E-05  3044   0.571E-03
  13 F= -.23185152E+04 E0= -.23185152E+04  d E =-.459693E-01  mag=     1.0000
       N       E                     dE             d eps       ncg     rms          rms(c)
DAV:   1    -0.229844360590E+04    0.57408E-01   -0.77076E+00  4376   0.263E+00    0.832E-01
RMM:   2    -0.229853639936E+04   -0.92793E-01   -0.10008E+00  6236   0.603E-01    0.525E-01
RMM:   3    -0.229853803639E+04   -0.16370E-02   -0.85859E-02  5569   0.165E-01    0.277E-01
RMM:   4    -0.229853757499E+04    0.46140E-03   -0.88635E-03  4673   0.376E-02    0.181E-01
RMM:   5    -0.229853706338E+04    0.51161E-03   -0.18796E-03  4582   0.342E-02    0.492E-02
RMM:   6    -0.229853706347E+04   -0.91968E-07   -0.30171E-04  4430   0.158E-02    0.272E-02
RMM:   7    -0.229853705265E+04    0.10820E-04   -0.38066E-05  2962   0.528E-03    0.144E-02
RMM:   8    -0.229853705173E+04    0.91612E-06   -0.19785E-05  2839   0.363E-03
  14 F= -.23185509E+04 E0= -.23185509E+04  d E =-.356746E-01  mag=     1.0000
       N       E                     dE             d eps       ncg     rms          rms(c)
DAV:   1    -0.229840423294E+04    0.13282E+00   -0.12471E+01  4344   0.333E+00    0.105E+00
RMM:   2    -0.229855245565E+04   -0.14822E+00   -0.15990E+00  6237   0.760E-01    0.657E-01
RMM:   3    -0.229855625850E+04   -0.38028E-02   -0.14640E-01  5622   0.207E-01    0.349E-01
RMM:   4    -0.229855521730E+04    0.10412E-02   -0.11019E-02  4687   0.441E-02    0.229E-01
RMM:   5    -0.229855441968E+04    0.79762E-03   -0.31013E-03  4618   0.428E-02    0.612E-02
RMM:   6    -0.229855441933E+04    0.35556E-06   -0.48656E-04  4690   0.200E-02    0.341E-02
RMM:   7    -0.229855440283E+04    0.16499E-04   -0.60939E-05  3145   0.602E-03    0.183E-02
RMM:   8    -0.229855440240E+04    0.43323E-06   -0.33830E-05  2878   0.450E-03
  15 F= -.23185676E+04 E0= -.23185676E+04  d E =-.523658E-01  mag=     1.0000
       N       E                     dE             d eps       ncg     rms          rms(c)
DAV:   1    -0.229841669826E+04    0.13770E+00   -0.11686E+01  4344   0.315E+00    0.111E+00
RMM:   2    -0.229857464047E+04   -0.15794E+00   -0.17372E+00  6226   0.734E-01    0.561E-01
RMM:   3    -0.229858403466E+04   -0.93942E-02   -0.18418E-01  5640   0.217E-01    0.324E-01
RMM:   4    -0.229858345277E+04    0.58189E-03   -0.12057E-02  4784   0.417E-02    0.210E-01
RMM:   5    -0.229858285089E+04    0.60188E-03   -0.23342E-03  4730   0.355E-02    0.945E-02
RMM:   6    -0.229858272009E+04    0.13080E-03   -0.61128E-04  4699   0.199E-02    0.397E-02
RMM:   7    -0.229858270050E+04    0.19594E-04   -0.90564E-05  3172   0.701E-03    0.227E-02
RMM:   8    -0.229858270316E+04   -0.26603E-05   -0.65094E-05  2964   0.473E-03
  16 F= -.23185955E+04 E0= -.23185955E+04  d E =-.279480E-01  mag=     1.0000
       N       E                     dE             d eps       ncg     rms          rms(c)
DAV:   1    -0.229858021931E+04    0.24812E-02   -0.21412E-01  4872   0.425E-01    0.150E-01
RMM:   2    -0.229858295548E+04   -0.27362E-02   -0.30254E-02  6180   0.954E-02    0.728E-02
RMM:   3    -0.229858317562E+04   -0.22014E-03   -0.36589E-03  4509   0.326E-02    0.436E-02
RMM:   4    -0.229858316713E+04    0.84897E-05   -0.22379E-04  3052   0.646E-03    0.281E-02
RMM:   5    -0.229858315828E+04    0.88565E-05   -0.40275E-05  2871   0.531E-03
  17 F= -.23185959E+04 E0= -.23185959E+04  d E =-.283373E-01  mag=     1.0000
       N       E                     dE             d eps       ncg     rms          rms(c)
DAV:   1    -0.229854008503E+04    0.43082E-01   -0.63115E+00  4344   0.215E+00    0.724E-01
RMM:   2    -0.229860341033E+04   -0.63325E-01   -0.69713E-01  6243   0.478E-01    0.360E-01
RMM:   3    -0.229860753833E+04   -0.41280E-02   -0.67616E-02  5676   0.128E-01    0.223E-01
RMM:   4    -0.229860737800E+04    0.16033E-03   -0.51906E-03  4629   0.302E-02    0.141E-01
RMM:   5    -0.229860719382E+04    0.18418E-03   -0.95140E-04  4487   0.244E-02    0.587E-02
RMM:   6    -0.229860717552E+04    0.18296E-04   -0.26807E-04  4035   0.142E-02    0.357E-02
RMM:   7    -0.229860715726E+04    0.18259E-04   -0.45935E-05  2871   0.564E-03    0.165E-02
RMM:   8    -0.229860715796E+04   -0.69854E-06   -0.28334E-05  2839   0.363E-03
  18 F= -.23186193E+04 E0= -.23186193E+04  d E =-.233781E-01  mag=     1.0000
       N       E                     dE             d eps       ncg     rms          rms(c)
DAV:   1    -0.229857686224E+04    0.30295E-01   -0.33442E+00  4352   0.156E+00    0.525E-01
RMM:   2    -0.229861012988E+04   -0.33268E-01   -0.36616E-01  6217   0.342E-01    0.257E-01
RMM:   3    -0.229861237773E+04   -0.22479E-02   -0.35364E-02  5620   0.929E-02    0.161E-01
RMM:   4    -0.229861230661E+04    0.71128E-04   -0.27142E-03  4529   0.222E-02    0.101E-01
RMM:   5    -0.229861221682E+04    0.89786E-04   -0.46982E-04  4376   0.172E-02    0.505E-02
RMM:   6    -0.229861219803E+04    0.18786E-04   -0.16584E-04  3514   0.113E-02    0.294E-02
RMM:   7    -0.229861218512E+04    0.12913E-04   -0.26633E-05  2831   0.508E-03    0.121E-02
RMM:   8    -0.229861218610E+04   -0.98138E-06   -0.16659E-05  2816   0.300E-03
  19 F= -.23186238E+04 E0= -.23186238E+04  d E =-.278913E-01  mag=     1.0000
       N       E                     dE             d eps       ncg     rms          rms(c)
DAV:   1    -0.229853311870E+04    0.79066E-01   -0.69436E+00  4344   0.225E+00    0.854E-01
RMM:   2    -0.229863411444E+04   -0.10100E+00   -0.10787E+00  6255   0.548E-01    0.593E-01
RMM:   3    -0.229863540616E+04   -0.12917E-02   -0.10139E-01  5646   0.146E-01    0.279E-01
RMM:   4    -0.229863474845E+04    0.65771E-03   -0.75487E-03  4683   0.300E-02    0.177E-01
RMM:   5    -0.229863426343E+04    0.48501E-03   -0.17679E-03  4694   0.295E-02    0.596E-02
RMM:   6    -0.229863424338E+04    0.20057E-04   -0.30232E-04  4267   0.145E-02    0.284E-02
RMM:   7    -0.229863422655E+04    0.16826E-04   -0.43850E-05  2879   0.481E-03    0.138E-02
RMM:   8    -0.229863422413E+04    0.24235E-05   -0.23560E-05  2828   0.361E-03
  20 F= -.23186451E+04 E0= -.23186451E+04  d E =-.212643E-01  mag=     1.0000
       N       E                     dE             d eps       ncg     rms          rms(c)
DAV:   1    -0.229849158224E+04    0.14264E+00   -0.10426E+01  4344   0.276E+00    0.105E+00
RMM:   2    -0.229864311807E+04   -0.15154E+00   -0.16211E+00  6260   0.688E-01    0.712E-01
RMM:   3    -0.229864556144E+04   -0.24434E-02   -0.15348E-01  5654   0.183E-01    0.338E-01
RMM:   4    -0.229864463756E+04    0.92389E-03   -0.11562E-02  4723   0.371E-02    0.214E-01
RMM:   5    -0.229864391688E+04    0.72068E-03   -0.25647E-03  4744   0.353E-02    0.784E-02
RMM:   6    -0.229864386971E+04    0.47166E-04   -0.48158E-04  4535   0.183E-02    0.354E-02
RMM:   7    -0.229864384225E+04    0.27466E-04   -0.73325E-05  3038   0.565E-03    0.169E-02
RMM:   8    -0.229864383763E+04    0.46164E-05   -0.34374E-05  2856   0.443E-03
  21 F= -.23186536E+04 E0= -.23186536E+04  d E =-.297470E-01  mag=     1.0000
       N       E                     dE             d eps       ncg     rms          rms(c)
DAV:   1    -0.229858579892E+04    0.58043E-01   -0.56418E+00  4360   0.194E+00    0.745E-01
RMM:   2    -0.229866311056E+04   -0.77312E-01   -0.82379E-01  6266   0.475E-01    0.504E-01
RMM:   3    -0.229866465822E+04   -0.15477E-02   -0.81296E-02  5630   0.133E-01    0.244E-01
RMM:   4    -0.229866420631E+04    0.45191E-03   -0.61292E-03  4731   0.266E-02    0.152E-01
RMM:   5    -0.229866386582E+04    0.34048E-03   -0.11724E-03  4704   0.236E-02    0.626E-02
RMM:   6    -0.229866383100E+04    0.34822E-04   -0.24794E-04  3932   0.126E-02    0.235E-02
RMM:   7    -0.229866382142E+04    0.95793E-05   -0.40572E-05  2847   0.471E-03
  22 F= -.23186728E+04 E0= -.23186728E+04  d E =-.192164E-01  mag=     1.0000
       N       E                     dE             d eps       ncg     rms          rms(c)
DAV:   1    -0.229845324583E+04    0.21059E+00   -0.15674E+01  4352   0.325E+00    0.124E+00
RMM:   2    -0.229867439958E+04   -0.22115E+00   -0.23580E+00  6278   0.827E-01    0.843E-01
RMM:   3    -0.229867841268E+04   -0.40131E-02   -0.22797E-01  5540   0.226E-01    0.405E-01
RMM:   4    -0.229867738176E+04    0.10309E-02   -0.18238E-02  4744   0.454E-02    0.255E-01
RMM:   5    -0.229867641686E+04    0.96489E-03   -0.33430E-03  4717   0.397E-02    0.106E-01
RMM:   6    -0.229867631847E+04    0.98398E-04   -0.76990E-04  4772   0.212E-02    0.409E-02
RMM:   7    -0.229867628462E+04    0.33844E-04   -0.11335E-04  3325   0.670E-03    0.204E-02
RMM:   8    -0.229867628724E+04   -0.26236E-05   -0.56785E-05  2917   0.509E-03
  23 F= -.23186838E+04 E0= -.23186838E+04  d E =-.302303E-01  mag=     1.0000
       N       E                     dE             d eps       ncg     rms          rms(c)
DAV:   1    -0.229860869453E+04    0.67590E-01   -0.77244E+00  4344   0.221E+00    0.790E-01
RMM:   2    -0.229869182429E+04   -0.83130E-01   -0.89906E-01  6259   0.515E-01    0.420E-01
RMM:   3    -0.229869704484E+04   -0.52206E-02   -0.90356E-02  5733   0.136E-01    0.248E-01
RMM:   4    -0.229869681059E+04    0.23425E-03   -0.67661E-03  4867   0.285E-02    0.160E-01
RMM:   5    -0.229869652864E+04    0.28195E-03   -0.11773E-03  4602   0.242E-02    0.530E-02
RMM:   6    -0.229869652840E+04    0.24041E-06   -0.21463E-04  3966   0.121E-02    0.241E-02
RMM:   7    -0.229869652210E+04    0.63007E-05   -0.35227E-05  2850   0.473E-03
  24 F= -.23187029E+04 E0= -.23187029E+04  d E =-.190816E-01  mag=     1.0000
       N       E                     dE             d eps       ncg     rms          rms(c)
DAV:   1    -0.229859775644E+04    0.98772E-01   -0.94535E+00  4344   0.245E+00    0.871E-01
RMM:   2    -0.229869956676E+04   -0.10181E+00   -0.10996E+00  6266   0.568E-01    0.465E-01
RMM:   3    -0.229870594719E+04   -0.63804E-02   -0.10944E-01  5722   0.149E-01    0.274E-01
RMM:   4    -0.229870562407E+04    0.32312E-03   -0.81162E-03  4917   0.315E-02    0.176E-01
RMM:   5    -0.229870527416E+04    0.34991E-03   -0.14267E-03  4644   0.263E-02    0.573E-02
RMM:   6    -0.229870527571E+04   -0.15542E-05   -0.25037E-04  4142   0.131E-02    0.247E-02
RMM:   7    -0.229870526924E+04    0.64749E-05   -0.38581E-05  2855   0.493E-03
  25 F= -.23187103E+04 E0= -.23187103E+04  d E =-.264812E-01  mag=     1.0000
       N       E                     dE             d eps       ncg     rms          rms(c)
DAV:   1    -0.229854129868E+04    0.16398E+00   -0.11056E+01  4360   0.279E+00    0.106E+00
RMM:   2    -0.229872250872E+04   -0.18121E+00   -0.19687E+00  6310   0.727E-01    0.607E-01
RMM:   3    -0.229873106943E+04   -0.85607E-02   -0.18507E-01  5773   0.187E-01    0.328E-01
RMM:   4    -0.229873074511E+04    0.32432E-03   -0.13076E-02  4882   0.358E-02    0.216E-01
RMM:   5    -0.229873004833E+04    0.69679E-03   -0.22241E-03  4599   0.309E-02    0.826E-02
RMM:   6    -0.229872999582E+04    0.52508E-04   -0.52232E-04  4371   0.178E-02    0.370E-02
RMM:   7    -0.229872997472E+04    0.21099E-04   -0.80201E-05  3047   0.628E-03    0.195E-02
RMM:   8    -0.229872996892E+04    0.57981E-05   -0.41852E-05  2914   0.441E-03
  26 F= -.23187332E+04 E0= -.23187332E+04  d E =-.228774E-01  mag=     1.0000
       N       E                     dE             d eps       ncg     rms          rms(c)
DAV:   1    -0.229859832206E+04    0.13165E+00   -0.83840E+00  4364   0.242E+00    0.918E-01
RMM:   2    -0.229873148470E+04   -0.13316E+00   -0.14506E+00  6301   0.620E-01    0.501E-01
RMM:   3    -0.229873885112E+04   -0.73664E-02   -0.13811E-01  5768   0.157E-01    0.281E-01
RMM:   4    -0.229873864175E+04    0.20937E-03   -0.97369E-03  4852   0.307E-02    0.185E-01
RMM:   5    -0.229873814146E+04    0.50029E-03   -0.16489E-03  4582   0.265E-02    0.711E-02
RMM:   6    -0.229873810365E+04    0.37816E-04   -0.41099E-04  4207   0.153E-02    0.320E-02
RMM:   7    -0.229873808699E+04    0.16660E-04   -0.59703E-05  2946   0.579E-03    0.176E-02
RMM:   8    -0.229873808229E+04    0.46974E-05   -0.32628E-05  2896   0.395E-03
  27 F= -.23187396E+04 E0= -.23187396E+04  d E =-.293282E-01  mag=     1.0000
       N       E                     dE             d eps       ncg     rms          rms(c)
DAV:   1    -0.229860650485E+04    0.13158E+00   -0.91570E+00  4360   0.261E+00    0.100E+00
RMM:   2    -0.229874664396E+04   -0.14014E+00   -0.15360E+00  6239   0.646E-01    0.512E-01
RMM:   3    -0.229875522671E+04   -0.85827E-02   -0.15667E-01  5710   0.177E-01    0.288E-01
RMM:   4    -0.229875493094E+04    0.29576E-03   -0.10581E-02  4817   0.344E-02    0.189E-01
RMM:   5    -0.229875442810E+04    0.50285E-03   -0.18360E-03  4690   0.289E-02    0.848E-02
RMM:   6    -0.229875434931E+04    0.78792E-04   -0.54796E-04  4519   0.172E-02    0.354E-02
RMM:   7    -0.229875432922E+04    0.20085E-04   -0.79930E-05  3041   0.702E-03    0.204E-02
RMM:   8    -0.229875432341E+04    0.58146E-05   -0.49410E-05  2964   0.431E-03
  28 F= -.23187543E+04 E0= -.23187543E+04  d E =-.146603E-01  mag=     1.0000
       N       E                     dE             d eps       ncg     rms          rms(c)
DAV:   1    -0.229874201427E+04    0.12315E-01   -0.83937E-01  4512   0.791E-01    0.306E-01
RMM:   2    -0.229875484465E+04   -0.12830E-01   -0.14134E-01  6220   0.191E-01    0.148E-01
RMM:   3    -0.229875568402E+04   -0.83936E-03   -0.13776E-02  5463   0.524E-02    0.867E-02
RMM:   4    -0.229875567292E+04    0.11091E-04   -0.10805E-03  3947   0.111E-02    0.561E-02
RMM:   5    -0.229875562315E+04    0.49776E-04   -0.15402E-04  3561   0.901E-03    0.227E-02
RMM:   6    -0.229875561787E+04    0.52756E-05   -0.42352E-05  2862   0.621E-03
  29 F= -.23187551E+04 E0= -.23187551E+04  d E =-.154732E-01  mag=     1.0000
       N       E                     dE             d eps       ncg     rms          rms(c)
DAV:   1    -0.229868957580E+04    0.66047E-01   -0.69102E+00  4344   0.222E+00    0.752E-01
RMM:   2    -0.229876501502E+04   -0.75439E-01   -0.82446E-01  6207   0.491E-01    0.374E-01
RMM:   3    -0.229877013596E+04   -0.51209E-02   -0.81112E-02  5632   0.129E-01    0.231E-01
RMM:   4    -0.229877004524E+04    0.90724E-04   -0.63040E-03  4770   0.286E-02    0.150E-01
RMM:   5    -0.229876979393E+04    0.25131E-03   -0.94231E-04  4481   0.222E-02    0.664E-02
RMM:   6    -0.229876977863E+04    0.15296E-04   -0.30517E-04  4085   0.147E-02    0.359E-02
RMM:   7    -0.229876976207E+04    0.16565E-04   -0.53433E-05  2871   0.591E-03    0.172E-02
RMM:   8    -0.229876976203E+04    0.34954E-07   -0.26608E-05  2829   0.342E-03
  30 F= -.23187681E+04 E0= -.23187681E+04  d E =-.130341E-01  mag=     1.0000
       N       E                     dE             d eps       ncg     rms          rms(c)
DAV:   1    -0.229875465200E+04    0.15110E-01   -0.15287E+00  4352   0.104E+00    0.351E-01
RMM:   2    -0.229877051818E+04   -0.15866E-01   -0.17326E-01  6205   0.224E-01    0.171E-01
RMM:   3    -0.229877169582E+04   -0.11776E-02   -0.17521E-02  5492   0.601E-02    0.107E-01
RMM:   4    -0.229877167381E+04    0.22010E-04   -0.12996E-03  4333   0.136E-02    0.690E-02
RMM:   5    -0.229877161772E+04    0.56092E-04   -0.20498E-04  3909   0.109E-02    0.265E-02
RMM:   6    -0.229877161783E+04   -0.11762E-06   -0.52126E-05  2884   0.712E-03
  31 F= -.23187695E+04 E0= -.23187695E+04  d E =-.143761E-01  mag=     1.0000
       N       E                     dE             d eps       ncg     rms          rms(c)
DAV:   1    -0.229867402704E+04    0.97591E-01   -0.80612E+00  4360   0.250E+00    0.875E-01
RMM:   2    -0.229878266959E+04   -0.10864E+00   -0.11752E+00  6229   0.582E-01    0.529E-01
RMM:   3    -0.229878717155E+04   -0.45020E-02   -0.11531E-01  5711   0.154E-01    0.277E-01
RMM:   4    -0.229878670874E+04    0.46281E-03   -0.82992E-03  4719   0.315E-02    0.178E-01
RMM:   5    -0.229878623458E+04    0.47416E-03   -0.14942E-03  4611   0.277E-02    0.654E-02
RMM:   6    -0.229878621711E+04    0.17473E-04   -0.35959E-04  4406   0.156E-02    0.296E-02
RMM:   7    -0.229878620215E+04    0.14954E-04   -0.48670E-05  2903   0.541E-03    0.155E-02
RMM:   8    -0.229878620156E+04    0.58844E-06   -0.27616E-05  2855   0.368E-03
  32 F= -.23187828E+04 E0= -.23187828E+04  d E =-.133402E-01  mag=     1.0000
       N       E                     dE             d eps       ncg     rms          rms(c)
DAV:   1    -0.229872130229E+04    0.64900E-01   -0.49730E+00  4360   0.197E+00    0.684E-01
RMM:   2    -0.229878742514E+04   -0.66123E-01   -0.71598E-01  6222   0.452E-01    0.406E-01
RMM:   3    -0.229879048419E+04   -0.30590E-02   -0.71799E-02  5712   0.121E-01    0.216E-01
RMM:   4    -0.229879018479E+04    0.29940E-03   -0.50053E-03  4695   0.247E-02    0.138E-01
RMM:   5    -0.229878989845E+04    0.28634E-03   -0.92377E-04  4564   0.218E-02    0.510E-02
RMM:   6    -0.229878988482E+04    0.13626E-04   -0.21635E-04  4023   0.123E-02    0.228E-02
RMM:   7    -0.229878987722E+04    0.76023E-05   -0.31020E-05  2843   0.485E-03
  33 F= -.23187855E+04 E0= -.23187855E+04  d E =-.160625E-01  mag=     1.0000
       N       E                     dE             d eps       ncg     rms          rms(c)
DAV:   1    -0.229864312827E+04    0.14676E+00   -0.10505E+01  4360   0.291E+00    0.104E+00
RMM:   2    -0.229879554297E+04   -0.15241E+00   -0.16567E+00  6235   0.694E-01    0.608E-01
RMM:   3    -0.229880206505E+04   -0.65221E-02   -0.16054E-01  5729   0.182E-01    0.321E-01
RMM:   4    -0.229880134700E+04    0.71805E-03   -0.11247E-02  4775   0.373E-02    0.206E-01
RMM:   5    -0.229880065247E+04    0.69453E-03   -0.21112E-03  4694   0.327E-02    0.745E-02
RMM:   6    -0.229880060851E+04    0.43951E-04   -0.50148E-04  4718   0.177E-02    0.312E-02
RMM:   7    -0.229880058547E+04    0.23048E-04   -0.67382E-05  3187   0.642E-03    0.170E-02
RMM:   8    -0.229880058029E+04    0.51740E-05   -0.39058E-05  2889   0.469E-03
  34 F= -.23187948E+04 E0= -.23187948E+04  d E =-.924196E-02  mag=     1.0000
       N       E                     dE             d eps       ncg     rms          rms(c)
DAV:   1    -0.229880050459E+04    0.80880E-04   -0.36460E-03  5192   0.541E-02    0.204E-02
RMM:   2    -0.229880055365E+04   -0.49067E-04   -0.53130E-04  4794   0.126E-02    0.123E-02
RMM:   3    -0.229880055672E+04   -0.30681E-05   -0.67189E-05  2897   0.680E-03
  35 F= -.23187948E+04 E0= -.23187948E+04  d E =-.924495E-02  mag=     1.0000
       N       E                     dE             d eps       ncg     rms          rms(c)
DAV:   1    -0.229876341743E+04    0.37136E-01   -0.40961E+00  4364   0.184E+00    0.579E-01
RMM:   2    -0.229880660881E+04   -0.43191E-01   -0.47547E-01  6165   0.397E-01    0.260E-01
RMM:   3    -0.229880970200E+04   -0.30932E-02   -0.46188E-02  5509   0.101E-01    0.175E-01
RMM:   4    -0.229880984764E+04   -0.14564E-03   -0.38337E-03  4903   0.259E-02    0.130E-01
RMM:   5    -0.229880965016E+04    0.19749E-03   -0.56606E-04  4653   0.152E-02    0.883E-02
RMM:   6    -0.229880957934E+04    0.70819E-04   -0.33388E-04  4320   0.137E-02    0.286E-02
RMM:   7    -0.229880956874E+04    0.10602E-04   -0.34943E-05  2909   0.639E-03    0.126E-02
RMM:   8    -0.229880956850E+04    0.23558E-06   -0.12161E-05  2812   0.313E-03
  36 F= -.23188029E+04 E0= -.23188029E+04  d E =-.812745E-02  mag=     1.0000
       N       E                     dE             d eps       ncg     rms          rms(c)
DAV:   1    -0.229880205984E+04    0.75089E-02   -0.77059E-01  4368   0.798E-01    0.252E-01
RMM:   2    -0.229881018174E+04   -0.81219E-02   -0.89465E-02  6139   0.171E-01    0.112E-01
RMM:   3    -0.229881076389E+04   -0.58215E-03   -0.86156E-03  5332   0.465E-02    0.750E-02
RMM:   4    -0.229881078867E+04   -0.24779E-04   -0.70103E-04  3802   0.115E-02    0.542E-02
RMM:   5    -0.229881075632E+04    0.32343E-04   -0.10772E-04  3352   0.769E-03    0.374E-02
RMM:   6    -0.229881074451E+04    0.11818E-04   -0.63946E-05  2992   0.715E-03    0.136E-02
RMM:   7    -0.229881074226E+04    0.22432E-05   -0.92766E-06  2800   0.456E-03
  37 F= -.23188037E+04 E0= -.23188037E+04  d E =-.892527E-02  mag=     1.0000
       N       E                     dE             d eps       ncg     rms          rms(c)
DAV:   1    -0.229875448993E+04    0.56255E-01   -0.47393E+00  4360   0.210E+00    0.673E-01
RMM:   2    -0.229881444229E+04   -0.59952E-01   -0.66187E-01  6154   0.467E-01    0.290E-01
RMM:   3    -0.229881859430E+04   -0.41520E-02   -0.62139E-02  5507   0.120E-01    0.194E-01
RMM:   4    -0.229881877895E+04   -0.18465E-03   -0.49182E-03  5057   0.295E-02    0.148E-01
RMM:   5    -0.229881849039E+04    0.28855E-03   -0.72913E-04  4759   0.167E-02    0.966E-02
RMM:   6    -0.229881839227E+04    0.98120E-04   -0.44608E-04  4454   0.153E-02    0.308E-02
RMM:   7    -0.229881837706E+04    0.15216E-04   -0.46326E-05  3009   0.757E-03    0.140E-02
RMM:   8    -0.229881837273E+04    0.43313E-05   -0.16015E-05  2820   0.336E-03
  38 F= -.23188101E+04 E0= -.23188101E+04  d E =-.642239E-02  mag=     1.0000
       N       E                     dE             d eps       ncg     rms          rms(c)
DAV:   1    -0.229881464456E+04    0.37325E-02   -0.32262E-01  4560   0.548E-01    0.175E-01
RMM:   2    -0.229881860396E+04   -0.39594E-02   -0.43742E-02  6147   0.121E-01    0.744E-02
RMM:   3    -0.229881887689E+04   -0.27294E-03   -0.40357E-03  4983   0.332E-02    0.486E-02
RMM:   4    -0.229881889746E+04   -0.20565E-04   -0.41096E-04  3154   0.860E-03    0.362E-02
RMM:   5    -0.229881888003E+04    0.17425E-04   -0.50759E-05  2988   0.590E-03    0.242E-02
RMM:   6    -0.229881887387E+04    0.61663E-05   -0.31236E-05  2844   0.560E-03
  39 F= -.23188103E+04 E0= -.23188103E+04  d E =-.661346E-02  mag=     1.0000
       N       E                     dE             d eps       ncg     rms          rms(c)
DAV:   1    -0.229875813247E+04    0.60748E-01   -0.50493E+00  4360   0.218E+00    0.672E-01
RMM:   2    -0.229882099975E+04   -0.62867E-01   -0.69384E-01  6181   0.481E-01    0.310E-01
RMM:   3    -0.229882579317E+04   -0.47934E-02   -0.72100E-02  5543   0.129E-01    0.203E-01
RMM:   4    -0.229882616078E+04   -0.36761E-03   -0.68817E-03  5110   0.319E-02    0.160E-01
RMM:   5    -0.229882574041E+04    0.42037E-03   -0.77694E-04  4761   0.166E-02    0.987E-02
RMM:   6    -0.229882564611E+04    0.94304E-04   -0.50151E-04  4461   0.160E-02    0.320E-02
RMM:   7    -0.229882562864E+04    0.17472E-04   -0.52539E-05  3032   0.800E-03    0.154E-02
RMM:   8    -0.229882562491E+04    0.37279E-05   -0.20829E-05  2835   0.352E-03
  40 F= -.23188158E+04 E0= -.23188158E+04  d E =-.554426E-02  mag=     1.0000
       N       E                     dE             d eps       ncg     rms          rms(c)
DAV:   1    -0.229882365277E+04    0.19759E-02   -0.16984E-01  4624   0.401E-01    0.125E-01
RMM:   2    -0.229882578269E+04   -0.21299E-02   -0.23492E-02  6138   0.880E-02    0.564E-02
RMM:   3    -0.229882592755E+04   -0.14486E-03   -0.21568E-03  4215   0.244E-02    0.342E-02
RMM:   4    -0.229882593282E+04   -0.52733E-05   -0.20499E-04  2952   0.633E-03    0.226E-02
RMM:   5    -0.229882592689E+04    0.59348E-05   -0.23073E-05  2826   0.437E-03
  41 F= -.23188159E+04 E0= -.23188159E+04  d E =-.562828E-02  mag=     1.0000
       N       E                     dE             d eps       ncg     rms          rms(c)
DAV:   1    -0.229879525876E+04    0.30674E-01   -0.38297E+00  4360   0.187E+00    0.534E-01
RMM:   2    -0.229882919568E+04   -0.33937E-01   -0.37381E-01  6124   0.380E-01    0.238E-01
RMM:   3    -0.229883151162E+04   -0.23159E-02   -0.34639E-02  5368   0.100E-01    0.163E-01
RMM:   4    -0.229883168764E+04   -0.17602E-03   -0.36464E-03  5044   0.275E-02    0.130E-01
RMM:   5    -0.229883145012E+04    0.23752E-03   -0.53386E-04  4722   0.158E-02    0.710E-02
RMM:   6    -0.229883141727E+04    0.32848E-04   -0.24536E-04  4316   0.120E-02    0.276E-02
RMM:   7    -0.229883141026E+04    0.70092E-05   -0.29209E-05  2877   0.639E-03
  42 F= -.23188207E+04 E0= -.23188207E+04  d E =-.474668E-02  mag=     1.0000
       N       E                     dE             d eps       ncg     rms          rms(c)
DAV:   1    -0.229883028078E+04    0.11365E-02   -0.14360E-01  4592   0.362E-01    0.104E-01
RMM:   2    -0.229883153344E+04   -0.12527E-02   -0.13846E-02  6076   0.735E-02    0.457E-02
RMM:   3    -0.229883161932E+04   -0.85877E-04   -0.12531E-03  3864   0.193E-02    0.310E-02
RMM:   4    -0.229883162839E+04   -0.90780E-05   -0.14280E-04  2898   0.609E-03    0.248E-02
RMM:   5    -0.229883162034E+04    0.80570E-05   -0.22137E-05  2841   0.443E-03
  43 F= -.23188207E+04 E0= -.23188207E+04  d E =-.481577E-02  mag=     1.0000
       N       E                     dE             d eps       ncg     rms          rms(c)
DAV:   1    -0.229880261468E+04    0.29014E-01   -0.30228E+00  4360   0.168E+00    0.503E-01
RMM:   2    -0.229883384371E+04   -0.31229E-01   -0.34380E-01  6114   0.356E-01    0.227E-01
RMM:   3    -0.229883578581E+04   -0.19421E-02   -0.31870E-02  5369   0.936E-02    0.147E-01
RMM:   4    -0.229883591012E+04   -0.12431E-03   -0.31472E-03  4954   0.254E-02    0.115E-01
RMM:   5    -0.229883573091E+04    0.17921E-03   -0.46401E-04  4586   0.149E-02    0.658E-02
RMM:   6    -0.229883569061E+04    0.40303E-04   -0.20905E-04  4196   0.110E-02    0.267E-02
RMM:   7    -0.229883568060E+04    0.10006E-04   -0.27240E-05  2887   0.606E-03    0.110E-02
RMM:   8    -0.229883567926E+04    0.13420E-05   -0.10337E-05  2802   0.303E-03
  44 F= -.23188242E+04 E0= -.23188242E+04  d E =-.345883E-02  mag=     1.0000
       N       E                     dE             d eps       ncg     rms          rms(c)
DAV:   1    -0.229883565264E+04    0.27960E-04   -0.14884E-03  5256   0.372E-02    0.113E-02
RMM:   2    -0.229883566724E+04   -0.14599E-04   -0.16071E-04  3674   0.806E-03    0.523E-03
RMM:   3    -0.229883566855E+04   -0.13093E-05   -0.17051E-05  2741   0.403E-03
  45 F= -.23188242E+04 E0= -.23188242E+04  d E =-.346131E-02  mag=     1.0000
       N       E                     dE             d eps       ncg     rms          rms(c)
DAV:   1    -0.229881196342E+04    0.23704E-01   -0.19933E+00  4364   0.138E+00    0.416E-01
RMM:   2    -0.229883774558E+04   -0.25782E-01   -0.28341E-01  6136   0.306E-01    0.192E-01
RMM:   3    -0.229883952725E+04   -0.17817E-02   -0.26139E-02  5464   0.812E-02    0.137E-01
RMM:   4    -0.229883970588E+04   -0.17863E-03   -0.28979E-03  4532   0.216E-02    0.112E-01
RMM:   5    -0.229883948271E+04    0.22317E-03   -0.33381E-04  4182   0.115E-02    0.514E-02
RMM:   6    -0.229883945925E+04    0.23463E-04   -0.15162E-04  3987   0.958E-03    0.199E-02
RMM:   7    -0.229883945336E+04    0.58869E-05   -0.19348E-05  2849   0.564E-03
  46 F= -.23188274E+04 E0= -.23188274E+04  d E =-.318050E-02  mag=     1.0000
       N       E                     dE             d eps       ncg     rms          rms(c)
DAV:   1    -0.229883525252E+04    0.42067E-02   -0.33291E-01  4368   0.563E-01    0.171E-01
RMM:   2    -0.229883954043E+04   -0.42879E-02   -0.47197E-02  6110   0.126E-01    0.783E-02
RMM:   3    -0.229883983891E+04   -0.29849E-03   -0.43502E-03  5029   0.337E-02    0.535E-02
RMM:   4    -0.229883987119E+04   -0.32280E-04   -0.47977E-04  3070   0.911E-03    0.451E-02
RMM:   5    -0.229883983527E+04    0.35918E-04   -0.55588E-05  2965   0.588E-03    0.211E-02
RMM:   6    -0.229883983162E+04    0.36501E-05   -0.29111E-05  2867   0.532E-03
  47 F= -.23188275E+04 E0= -.23188275E+04  d E =-.331538E-02  mag=     1.0000
       N       E                     dE             d eps       ncg     rms          rms(c)
DAV:   1    -0.229883160557E+04    0.82297E-02   -0.93853E-01  4360   0.931E-01    0.271E-01
RMM:   2    -0.229884201937E+04   -0.10414E-01   -0.11440E-01  6134   0.202E-01    0.130E-01
RMM:   3    -0.229884280177E+04   -0.78240E-03   -0.10590E-02  5460   0.518E-02    0.114E-01
RMM:   4    -0.229884275694E+04    0.44830E-04   -0.11021E-03  3709   0.138E-02    0.651E-02
RMM:   5    -0.229884269260E+04    0.64340E-04   -0.14547E-04  3858   0.871E-03    0.279E-02
RMM:   6    -0.229884269031E+04    0.22933E-05   -0.43413E-05  2967   0.705E-03
  48 F= -.23188300E+04 E0= -.23188300E+04  d E =-.248680E-02  mag=     1.0000
       N       E                     dE             d eps       ncg     rms          rms(c)
DAV:   1    -0.229879846807E+04    0.44225E-01   -0.39342E+00  4360   0.191E+00    0.553E-01
RMM:   2    -0.229884218322E+04   -0.43715E-01   -0.47991E-01  6143   0.413E-01    0.268E-01
RMM:   3    -0.229884553356E+04   -0.33503E-02   -0.45045E-02  5597   0.114E-01    0.239E-01
RMM:   4    -0.229884530826E+04    0.22530E-03   -0.46996E-03  5126   0.286E-02    0.134E-01
RMM:   5    -0.229884503676E+04    0.27150E-03   -0.58266E-04  4455   0.156E-02    0.595E-02
RMM:   6    -0.229884502167E+04    0.15090E-04   -0.19949E-04  4147   0.125E-02    0.215E-02
RMM:   7    -0.229884502012E+04    0.15498E-05   -0.26369E-05  2851   0.622E-03
  49 F= -.23188316E+04 E0= -.23188316E+04  d E =-.406714E-02  mag=     1.0000
       N       E                     dE             d eps       ncg     rms          rms(c)
DAV:   1    -0.229882759108E+04    0.17431E-01   -0.16355E+00  4360   0.120E+00    0.374E-01
RMM:   2    -0.229884707655E+04   -0.19485E-01   -0.21408E-01  6161   0.270E-01    0.181E-01
RMM:   3    -0.229884858886E+04   -0.15123E-02   -0.20259E-02  5536   0.739E-02    0.157E-01
RMM:   4    -0.229884851216E+04    0.76701E-04   -0.21137E-03  4417   0.190E-02    0.915E-02
RMM:   5    -0.229884839145E+04    0.12071E-03   -0.26650E-04  4149   0.112E-02    0.389E-02
RMM:   6    -0.229884838889E+04    0.25591E-05   -0.78370E-05  3388   0.859E-03
  50 F= -.23188345E+04 E0= -.23188345E+04  d E =-.295661E-02  mag=     1.0000
       N       E                     dE             d eps       ncg     rms          rms(c)
DAV:   1    -0.229883764863E+04    0.10743E-01   -0.89357E-01  4364   0.888E-01    0.279E-01
RMM:   2    -0.229884842085E+04   -0.10772E-01   -0.11842E-01  6227   0.200E-01    0.136E-01
RMM:   3    -0.229884926870E+04   -0.84785E-03   -0.11208E-02  5491   0.568E-02    0.117E-01
RMM:   4    -0.229884921819E+04    0.50508E-04   -0.11353E-03  3737   0.142E-02    0.678E-02
RMM:   5    -0.229884915618E+04    0.62007E-04   -0.14786E-04  3909   0.894E-03    0.285E-02
RMM:   6    -0.229884915553E+04    0.65367E-06   -0.41042E-05  2910   0.692E-03
  51 F= -.23188350E+04 E0= -.23188350E+04  d E =-.342313E-02  mag=     1.0000
       N       E                     dE             d eps       ncg     rms          rms(c)
DAV:   1    -0.229883159559E+04    0.17561E-01   -0.13460E+00  4360   0.108E+00    0.360E-01
RMM:   2    -0.229885099024E+04   -0.19395E-01   -0.21314E-01  6160   0.253E-01    0.167E-01
RMM:   3    -0.229885245359E+04   -0.14634E-02   -0.20217E-02  5497   0.724E-02    0.124E-01
RMM:   4    -0.229885257438E+04   -0.12078E-03   -0.21968E-03  4115   0.180E-02    0.969E-02
RMM:   5    -0.229885242152E+04    0.15286E-03   -0.24081E-04  4015   0.997E-03    0.433E-02
RMM:   6    -0.229885241025E+04    0.11272E-04   -0.96543E-05  3436   0.774E-03    0.171E-02
RMM:   7    -0.229885240690E+04    0.33473E-05   -0.14535E-05  2828   0.526E-03
  52 F= -.23188379E+04 E0= -.23188379E+04  d E =-.286936E-02  mag=     1.0000
       N       E                     dE             d eps       ncg     rms          rms(c)
DAV:   1    -0.229883947206E+04    0.12938E-01   -0.90532E-01  4360   0.887E-01    0.295E-01
RMM:   2    -0.229885247928E+04   -0.13007E-01   -0.14293E-01  6158   0.207E-01    0.136E-01
RMM:   3    -0.229885345528E+04   -0.97600E-03   -0.13502E-02  5439   0.574E-02    0.991E-02
RMM:   4    -0.229885353763E+04   -0.82356E-04   -0.14393E-03  3715   0.148E-02    0.797E-02
RMM:   5    -0.229885343643E+04    0.10120E-03   -0.16182E-04  3662   0.876E-03    0.351E-02
RMM:   6    -0.229885342848E+04    0.79540E-05   -0.68231E-05  3206   0.684E-03
  53 F= -.23188386E+04 E0= -.23188386E+04  d E =-.358462E-02  mag=     1.0000
       N       E                     dE             d eps       ncg     rms          rms(c)
DAV:   1    -0.229883793631E+04    0.15500E-01   -0.14236E+00  4360   0.110E+00    0.356E-01
RMM:   2    -0.229885583710E+04   -0.17901E-01   -0.19636E-01  6174   0.249E-01    0.174E-01
RMM:   3    -0.229885722689E+04   -0.13898E-02   -0.18904E-02  5482   0.700E-02    0.142E-01
RMM:   4    -0.229885722365E+04    0.32457E-05   -0.19819E-03  4310   0.179E-02    0.938E-02
RMM:   5    -0.229885709746E+04    0.12618E-03   -0.25219E-04  4114   0.107E-02    0.397E-02
RMM:   6    -0.229885709176E+04    0.57065E-05   -0.75012E-05  3230   0.789E-03
  54 F= -.23188419E+04 E0= -.23188419E+04  d E =-.333971E-02  mag=     1.0000
       N       E                     dE             d eps       ncg     rms          rms(c)
DAV:   1    -0.229884270440E+04    0.14393E-01   -0.11533E+00  4360   0.985E-01    0.320E-01
RMM:   2    -0.229885716269E+04   -0.14458E-01   -0.15860E-01  6220   0.225E-01    0.157E-01
RMM:   3    -0.229885828519E+04   -0.11225E-02   -0.15262E-02  5496   0.641E-02    0.128E-01
RMM:   4    -0.229885828264E+04    0.25491E-05   -0.15981E-03  4064   0.163E-02    0.843E-02
RMM:   5    -0.229885818057E+04    0.10207E-03   -0.20458E-04  4022   0.100E-02    0.357E-02
RMM:   6    -0.229885817604E+04    0.45237E-05   -0.61172E-05  3050   0.742E-03
  55 F= -.23188427E+04 E0= -.23188427E+04  d E =-.413864E-02  mag=     1.0000
       N       E                     dE             d eps       ncg     rms          rms(c)
DAV:   1    -0.229884213758E+04    0.16043E-01   -0.14663E+00  4360   0.109E+00    0.348E-01
RMM:   2    -0.229886004379E+04   -0.17906E-01   -0.19590E-01  6231   0.247E-01    0.181E-01
RMM:   3    -0.229886151257E+04   -0.14688E-02   -0.19307E-02  5598   0.697E-02    0.155E-01
RMM:   4    -0.229886141310E+04    0.99474E-04   -0.19577E-03  4282   0.175E-02    0.895E-02
RMM:   5    -0.229886130722E+04    0.10588E-03   -0.24748E-04  4107   0.104E-02    0.363E-02
RMM:   6    -0.229886130842E+04   -0.12048E-05   -0.60913E-05  3037   0.785E-03
  56 F= -.23188455E+04 E0= -.23188455E+04  d E =-.277963E-02  mag=     1.0000
       N       E                     dE             d eps       ncg     rms          rms(c)
DAV:   1    -0.229883671994E+04    0.24587E-01   -0.19737E+00  4360   0.126E+00    0.404E-01
RMM:   2    -0.229886097939E+04   -0.24259E-01   -0.26524E-01  6198   0.287E-01    0.211E-01
RMM:   3    -0.229886278823E+04   -0.18088E-02   -0.26144E-02  5629   0.817E-02    0.183E-01
RMM:   4    -0.229886263651E+04    0.15172E-03   -0.26277E-03  4658   0.202E-02    0.103E-01
RMM:   5    -0.229886249320E+04    0.14331E-03   -0.32775E-04  4218   0.116E-02    0.422E-02
RMM:   6    -0.229886249406E+04   -0.86013E-06   -0.83920E-05  3355   0.883E-03
  57 F= -.23188463E+04 E0= -.23188463E+04  d E =-.356411E-02  mag=     1.0000
       N       E                     dE             d eps       ncg     rms          rms(c)
DAV:   1    -0.229883870001E+04    0.23793E-01   -0.17150E+00  4360   0.118E+00    0.393E-01
RMM:   2    -0.229886409371E+04   -0.25394E-01   -0.27790E-01  6245   0.285E-01    0.209E-01
RMM:   3    -0.229886631602E+04   -0.22223E-02   -0.28874E-02  5634   0.835E-02    0.180E-01
RMM:   4    -0.229886618589E+04    0.13012E-03   -0.27445E-03  4411   0.198E-02    0.100E-01
RMM:   5    -0.229886604736E+04    0.13853E-03   -0.27238E-04  4083   0.104E-02    0.430E-02
RMM:   6    -0.229886604121E+04    0.61518E-05   -0.91627E-05  3388   0.852E-03
  58 F= -.23188493E+04 E0= -.23188493E+04  d E =-.303744E-02  mag=     1.0000
       N       E                     dE             d eps       ncg     rms          rms(c)
DAV:   1    -0.229883632416E+04    0.29723E-01   -0.19553E+00  4360   0.126E+00    0.420E-01
RMM:   2    -0.229886535383E+04   -0.29030E-01   -0.31768E-01  6200   0.302E-01    0.224E-01
RMM:   3    -0.229886790437E+04   -0.25505E-02   -0.33138E-02  5639   0.914E-02    0.193E-01
RMM:   4    -0.229886775016E+04    0.15421E-03   -0.31401E-03  4621   0.211E-02    0.107E-01
RMM:   5    -0.229886758996E+04    0.16020E-03   -0.30739E-04  4126   0.110E-02    0.462E-02
RMM:   6    -0.229886758139E+04    0.85650E-05   -0.10635E-04  3584   0.898E-03    0.157E-02
RMM:   7    -0.229886757974E+04    0.16512E-05   -0.16580E-05  2817   0.518E-03
  59 F= -.23188503E+04 E0= -.23188503E+04  d E =-.404295E-02  mag=     1.0000
       N       E                     dE             d eps       ncg     rms          rms(c)
DAV:   1    -0.229884247485E+04    0.25107E-01   -0.18602E+00  4360   0.123E+00    0.424E-01
RMM:   2    -0.229886955419E+04   -0.27079E-01   -0.29601E-01  6166   0.295E-01    0.228E-01
RMM:   3    -0.229887178612E+04   -0.22319E-02   -0.30575E-02  5614   0.867E-02    0.196E-01
RMM:   4    -0.229887152786E+04    0.25826E-03   -0.28974E-03  4771   0.208E-02    0.101E-01
RMM:   5    -0.229887137310E+04    0.15477E-03   -0.34476E-04  4221   0.119E-02    0.396E-02
RMM:   6    -0.229887136750E+04    0.56034E-05   -0.87915E-05  3472   0.913E-03
  60 F= -.23188537E+04 E0= -.23188537E+04  d E =-.332917E-02  mag=     1.0000
       N       E                     dE             d eps       ncg     rms          rms(c)
DAV:   1    -0.229885871009E+04    0.12663E-01   -0.86262E-01  4384   0.835E-01    0.291E-01
RMM:   2    -0.229887135969E+04   -0.12650E-01   -0.13830E-01  6255   0.201E-01    0.157E-01
RMM:   3    -0.229887237078E+04   -0.10111E-02   -0.14004E-02  5508   0.607E-02    0.131E-01
RMM:   4    -0.229887225953E+04    0.11125E-03   -0.13209E-03  3920   0.142E-02    0.690E-02
RMM:   5    -0.229887218690E+04    0.72630E-04   -0.17021E-04  3954   0.914E-03    0.259E-02
RMM:   6    -0.229887218493E+04    0.19721E-05   -0.38659E-05  2866   0.689E-03
  61 F= -.23188542E+04 E0= -.23188542E+04  d E =-.383857E-02  mag=     1.0000
       N       E                     dE             d eps       ncg     rms          rms(c)
DAV:   1    -0.229884636820E+04    0.25819E-01   -0.20979E+00  4360   0.126E+00    0.424E-01
RMM:   2    -0.229887423299E+04   -0.27865E-01   -0.30312E-01  6181   0.294E-01    0.245E-01
RMM:   3    -0.229887635047E+04   -0.21175E-02   -0.29777E-02  5635   0.867E-02    0.199E-01
RMM:   4    -0.229887605138E+04    0.29909E-03   -0.28863E-03  4887   0.206E-02    0.105E-01
RMM:   5    -0.229887589706E+04    0.15432E-03   -0.41155E-04  4284   0.129E-02    0.372E-02
RMM:   6    -0.229887590342E+04   -0.63630E-05   -0.79466E-05  3211   0.933E-03
  62 F= -.23188576E+04 E0= -.23188576E+04  d E =-.338531E-02  mag=     1.0000
       N       E                     dE             d eps       ncg     rms          rms(c)
DAV:   1    -0.229884127706E+04    0.34620E-01   -0.25465E+00  4360   0.139E+00    0.469E-01
RMM:   2    -0.229887521219E+04   -0.33935E-01   -0.36909E-01  6192   0.324E-01    0.270E-01
RMM:   3    -0.229887778528E+04   -0.25731E-02   -0.36194E-02  5656   0.931E-02    0.221E-01
RMM:   4    -0.229887740743E+04    0.37785E-03   -0.35244E-03  5056   0.226E-02    0.116E-01
RMM:   5    -0.229887721861E+04    0.18882E-03   -0.50314E-04  4382   0.140E-02    0.409E-02
RMM:   6    -0.229887722561E+04   -0.69981E-05   -0.10153E-04  3487   0.103E-02    0.150E-02
RMM:   7    -0.229887722912E+04   -0.35048E-05   -0.17625E-05  2822   0.456E-03
  63 F= -.23188585E+04 E0= -.23188585E+04  d E =-.435064E-02  mag=     1.0000
       N       E                     dE             d eps       ncg     rms          rms(c)
DAV:   1    -0.229884984092E+04    0.27385E-01   -0.20253E+00  4360   0.121E+00    0.419E-01
RMM:   2    -0.229887876218E+04   -0.28921E-01   -0.31501E-01  6204   0.291E-01    0.235E-01
RMM:   3    -0.229888108597E+04   -0.23238E-02   -0.31259E-02  5625   0.863E-02    0.189E-01
RMM:   4    -0.229888089655E+04    0.18942E-03   -0.30853E-03  4764   0.202E-02    0.108E-01
RMM:   5    -0.229888072051E+04    0.17604E-03   -0.40645E-04  4214   0.123E-02    0.395E-02
RMM:   6    -0.229888072403E+04   -0.35240E-05   -0.83423E-05  3203   0.910E-03
  64 F= -.23188616E+04 E0= -.23188616E+04  d E =-.308966E-02  mag=     1.0000
       N       E                     dE             d eps       ncg     rms          rms(c)
DAV:   1    -0.229884496526E+04    0.35755E-01   -0.24237E+00  4360   0.132E+00    0.460E-01
RMM:   2    -0.229887956493E+04   -0.34600E-01   -0.37716E-01  6234   0.319E-01    0.259E-01
RMM:   3    -0.229888237560E+04   -0.28107E-02   -0.37715E-02  5708   0.931E-02    0.210E-01
RMM:   4    -0.229888212663E+04    0.24897E-03   -0.36925E-03  4925   0.220E-02    0.118E-01
RMM:   5    -0.229888192082E+04    0.20580E-03   -0.47705E-04  4260   0.131E-02    0.433E-02
RMM:   6    -0.229888192309E+04   -0.22631E-05   -0.10245E-04  3391   0.996E-03    0.158E-02
RMM:   7    -0.229888192486E+04   -0.17732E-05   -0.17906E-05  2820   0.483E-03
  65 F= -.23188624E+04 E0= -.23188624E+04  d E =-.385493E-02  mag=     1.0000
       N       E                     dE             d eps       ncg     rms          rms(c)
DAV:   1    -0.229883902281E+04    0.42900E-01   -0.28467E+00  4360   0.139E+00    0.496E-01
RMM:   2    -0.229888267154E+04   -0.43649E-01   -0.47546E-01  6212   0.345E-01    0.288E-01
RMM:   3    -0.229888654817E+04   -0.38766E-02   -0.51720E-02  5686   0.111E-01    0.227E-01
RMM:   4    -0.229888632357E+04    0.22460E-03   -0.48583E-03  5018   0.242E-02    0.133E-01
RMM:   5    -0.229888604430E+04    0.27927E-03   -0.54799E-04  4330   0.138E-02    0.503E-02
RMM:   6    -0.229888603970E+04    0.46056E-05   -0.13860E-04  3638   0.102E-02    0.177E-02
RMM:   7    -0.229888603940E+04    0.29635E-06   -0.21939E-05  2832   0.508E-03
  66 F= -.23188660E+04 E0= -.23188660E+04  d E =-.362456E-02  mag=     1.0000
       N       E                     dE             d eps       ncg     rms          rms(c)
DAV:   1    -0.229885559780E+04    0.30442E-01   -0.18990E+00  4360   0.113E+00    0.405E-01
RMM:   2    -0.229888474544E+04   -0.29148E-01   -0.31742E-01  6218   0.283E-01    0.236E-01
RMM:   3    -0.229888728149E+04   -0.25361E-02   -0.34214E-02  5654   0.914E-02    0.183E-01
RMM:   4    -0.229888714594E+04    0.13555E-03   -0.32265E-03  4676   0.197E-02    0.109E-01
RMM:   5    -0.229888695752E+04    0.18842E-03   -0.37291E-04  4199   0.118E-02    0.402E-02
RMM:   6    -0.229888695483E+04    0.26920E-05   -0.89728E-05  3162   0.871E-03
  67 F= -.23188665E+04 E0= -.23188665E+04  d E =-.414859E-02  mag=     1.0000
       N       E                     dE             d eps       ncg     rms          rms(c)
DAV:   1    -0.229883654681E+04    0.50411E-01   -0.35338E+00  4360   0.151E+00    0.548E-01
RMM:   2    -0.229888780929E+04   -0.51262E-01   -0.55610E-01  6244   0.371E-01    0.333E-01
RMM:   3    -0.229889186888E+04   -0.40596E-02   -0.57073E-02  5774   0.110E-01    0.259E-01
RMM:   4    -0.229889142751E+04    0.44136E-03   -0.54866E-03  5229   0.257E-02    0.142E-01
RMM:   5    -0.229889113292E+04    0.29459E-03   -0.71936E-04  4426   0.154E-02    0.501E-02
RMM:   6    -0.229889114445E+04   -0.11533E-04   -0.14016E-04  3567   0.113E-02    0.182E-02
RMM:   7    -0.229889114953E+04   -0.50702E-05   -0.24647E-05  2831   0.475E-03
  68 F= -.23188704E+04 E0= -.23188704E+04  d E =-.390048E-02  mag=     1.0000
       N       E                     dE             d eps       ncg     rms          rms(c)
DAV:   1    -0.229882195278E+04    0.69192E-01   -0.45108E+00  4360   0.171E+00    0.618E-01
RMM:   2    -0.229888812928E+04   -0.66177E-01   -0.71636E-01  6219   0.419E-01    0.376E-01
RMM:   3    -0.229889285775E+04   -0.47285E-02   -0.73335E-02  5785   0.127E-01    0.296E-01
RMM:   4    -0.229889225250E+04    0.60525E-03   -0.70378E-03  5460   0.293E-02    0.160E-01
RMM:   5    -0.229889186797E+04    0.38453E-03   -0.92069E-04  4567   0.172E-02    0.573E-02
RMM:   6    -0.229889187907E+04   -0.11102E-04   -0.18583E-04  3908   0.125E-02    0.208E-02
RMM:   7    -0.229889188497E+04   -0.59065E-05   -0.30168E-05  2847   0.494E-03
  69 F= -.23188709E+04 E0= -.23188709E+04  d E =-.431415E-02  mag=     1.0000
       N       E                     dE             d eps       ncg     rms          rms(c)
DAV:   1    -0.229888178360E+04    0.10095E-01   -0.67501E-01  4384   0.659E-01    0.240E-01
RMM:   2    -0.229889159430E+04   -0.98107E-02   -0.10603E-01  6233   0.163E-01    0.147E-01
RMM:   3    -0.229889218822E+04   -0.59392E-03   -0.10136E-02  5152   0.497E-02    0.929E-02
RMM:   4    -0.229889216081E+04    0.27408E-04   -0.98853E-04  3501   0.106E-02    0.616E-02
RMM:   5    -0.229889210770E+04    0.53114E-04   -0.16066E-04  3389   0.865E-03    0.209E-02
RMM:   6    -0.229889210925E+04   -0.15526E-05   -0.37978E-05  2871   0.564E-03
  70 F= -.23188712E+04 E0= -.23188712E+04  d E =-.466165E-02  mag=     1.0000
       N       E                     dE             d eps       ncg     rms          rms(c)
DAV:   1    -0.229884480519E+04    0.47303E-01   -0.33913E+00  4360   0.150E+00    0.557E-01
RMM:   2    -0.229889382013E+04   -0.49015E-01   -0.53022E-01  6186   0.368E-01    0.333E-01
RMM:   3    -0.229889713538E+04   -0.33153E-02   -0.54167E-02  5726   0.114E-01    0.258E-01
RMM:   4    -0.229889661854E+04    0.51684E-03   -0.51843E-03  5384   0.265E-02    0.138E-01
RMM:   5    -0.229889632410E+04    0.29444E-03   -0.74387E-04  4558   0.164E-02    0.479E-02
RMM:   6    -0.229889632514E+04   -0.10372E-05   -0.13558E-04  3776   0.114E-02    0.180E-02
RMM:   7    -0.229889632765E+04   -0.25169E-05   -0.23566E-05  2837   0.478E-03
  71 F= -.23188751E+04 E0= -.23188751E+04  d E =-.393294E-02  mag=     1.0000
       N       E                     dE             d eps       ncg     rms          rms(c)
DAV:   1    -0.229889251000E+04    0.38151E-02   -0.26768E-01  4464   0.420E-01    0.158E-01
RMM:   2    -0.229889635005E+04   -0.38400E-02   -0.41596E-02  6184   0.105E-01    0.940E-02
RMM:   3    -0.229889660688E+04   -0.25684E-03   -0.41278E-03  4472   0.338E-02    0.654E-02
RMM:   4    -0.229889658224E+04    0.24642E-04   -0.40213E-04  3067   0.807E-03    0.394E-02
RMM:   5    -0.229889655816E+04    0.24082E-04   -0.64842E-05  3001   0.629E-03    0.130E-02
RMM:   6    -0.229889655921E+04   -0.10553E-05   -0.15799E-05  2817   0.479E-03
  72 F= -.23188753E+04 E0= -.23188753E+04  d E =-.408591E-02  mag=     1.0000
       N       E                     dE             d eps       ncg     rms          rms(c)
DAV:   1    -0.229885544263E+04    0.41116E-01   -0.29159E+00  4360   0.142E+00    0.504E-01
RMM:   2    -0.229889814534E+04   -0.42703E-01   -0.46173E-01  6186   0.343E-01    0.303E-01
RMM:   3    -0.229890132028E+04   -0.31749E-02   -0.49708E-02  5676   0.109E-01    0.229E-01
RMM:   4    -0.229890099427E+04    0.32601E-03   -0.46805E-03  5103   0.240E-02    0.128E-01
RMM:   5    -0.229890072254E+04    0.27173E-03   -0.56671E-04  4404   0.146E-02    0.448E-02
RMM:   6    -0.229890072180E+04    0.74443E-06   -0.12122E-04  3584   0.106E-02    0.150E-02
RMM:   7    -0.229890072287E+04   -0.10745E-05   -0.20047E-05  2820   0.480E-03
  73 F= -.23188791E+04 E0= -.23188791E+04  d E =-.376623E-02  mag=     1.0000
       N       E                     dE             d eps       ncg     rms          rms(c)
DAV:   1    -0.229887430583E+04    0.26416E-01   -0.17576E+00  4360   0.110E+00    0.391E-01
RMM:   2    -0.229889993981E+04   -0.25634E-01   -0.27698E-01  6160   0.267E-01    0.235E-01
RMM:   3    -0.229890194739E+04   -0.20076E-02   -0.29558E-02  5573   0.880E-02    0.171E-01
RMM:   4    -0.229890178782E+04    0.15956E-03   -0.28181E-03  4677   0.186E-02    0.100E-01
RMM:   5    -0.229890162074E+04    0.16708E-03   -0.35647E-04  4189   0.119E-02    0.339E-02
RMM:   6    -0.229890162050E+04    0.24491E-06   -0.71797E-05  3039   0.854E-03
  74 F= -.23188796E+04 E0= -.23188796E+04  d E =-.436128E-02  mag=     1.0000
       N       E                     dE             d eps       ncg     rms          rms(c)
DAV:   1    -0.229887628999E+04    0.25331E-01   -0.20673E+00  4360   0.116E+00    0.406E-01
RMM:   2    -0.229890318635E+04   -0.26896E-01   -0.29009E-01  6190   0.273E-01    0.253E-01
RMM:   3    -0.229890513587E+04   -0.19495E-02   -0.30288E-02  5633   0.828E-02    0.179E-01
RMM:   4    -0.229890494082E+04    0.19506E-03   -0.29274E-03  4796   0.186E-02    0.106E-01
RMM:   5    -0.229890476419E+04    0.17663E-03   -0.42344E-04  4247   0.128E-02    0.337E-02
RMM:   6    -0.229890476931E+04   -0.51282E-05   -0.80120E-05  3030   0.893E-03
  75 F= -.23188826E+04 E0= -.23188826E+04  d E =-.294194E-02  mag=     1.0000
       N       E                     dE             d eps       ncg     rms          rms(c)
DAV:   1    -0.229886894288E+04    0.35821E-01   -0.26492E+00  4360   0.131E+00    0.460E-01
RMM:   2    -0.229890384212E+04   -0.34899E-01   -0.37584E-01  6170   0.310E-01    0.288E-01
RMM:   3    -0.229890648324E+04   -0.26411E-02   -0.39951E-02  5662   0.966E-02    0.207E-01
RMM:   4    -0.229890621126E+04    0.27197E-03   -0.38409E-03  4999   0.214E-02    0.120E-01
RMM:   5    -0.229890598026E+04    0.23101E-03   -0.54024E-04  4370   0.143E-02    0.390E-02
RMM:   6    -0.229890598580E+04   -0.55398E-05   -0.10021E-04  3246   0.992E-03    0.145E-02
RMM:   7    -0.229890598672E+04   -0.92931E-06   -0.18400E-05  2824   0.469E-03
  76 F= -.23188836E+04 E0= -.23188836E+04  d E =-.392912E-02  mag=     1.0000
       N       E                     dE             d eps       ncg     rms          rms(c)
DAV:   1    -0.229888356120E+04    0.22425E-01   -0.20618E+00  4360   0.114E+00    0.403E-01
RMM:   2    -0.229890820522E+04   -0.24644E-01   -0.26471E-01  6160   0.263E-01    0.248E-01
RMM:   3    -0.229890964391E+04   -0.14387E-02   -0.25661E-02  5599   0.786E-02    0.176E-01
RMM:   4    -0.229890942402E+04    0.21990E-03   -0.25890E-03  4907   0.187E-02    0.106E-01
RMM:   5    -0.229890924690E+04    0.17712E-03   -0.47911E-04  4347   0.141E-02    0.334E-02
RMM:   6    -0.229890925750E+04   -0.10601E-04   -0.87022E-05  3044   0.900E-03    0.141E-02
RMM:   7    -0.229890925874E+04   -0.12350E-05   -0.13133E-05  2822   0.416E-03
  77 F= -.23188867E+04 E0= -.23188867E+04  d E =-.314455E-02  mag=     1.0000
       N       E                     dE             d eps       ncg     rms          rms(c)
DAV:   1    -0.229890348843E+04    0.57691E-02   -0.49741E-01  4400   0.559E-01    0.199E-01
RMM:   2    -0.229890946095E+04   -0.59725E-02   -0.64098E-02  6162   0.130E-01    0.122E-01
RMM:   3    -0.229890977344E+04   -0.31249E-03   -0.60993E-03  5028   0.405E-02    0.812E-02
RMM:   4    -0.229890973545E+04    0.37986E-04   -0.63211E-04  3369   0.933E-03    0.523E-02
RMM:   5    -0.229890969201E+04    0.43439E-04   -0.12355E-04  3400   0.808E-03    0.162E-02
RMM:   6    -0.229890969477E+04   -0.27524E-05   -0.26500E-05  2856   0.538E-03
  78 F= -.23188871E+04 E0= -.23188871E+04  d E =-.351871E-02  mag=     1.0000
       N       E                     dE             d eps       ncg     rms          rms(c)
DAV:   1    -0.229889863518E+04    0.11057E-01   -0.11401E+00  4360   0.883E-01    0.303E-01
RMM:   2    -0.229891209225E+04   -0.13457E-01   -0.14493E-01  6114   0.200E-01    0.179E-01
RMM:   3    -0.229891280160E+04   -0.70935E-03   -0.13895E-02  5448   0.585E-02    0.117E-01
RMM:   4    -0.229891273458E+04    0.67014E-04   -0.14706E-03  4424   0.140E-02    0.800E-02
RMM:   5    -0.229891262415E+04    0.11044E-03   -0.30635E-04  4139   0.119E-02    0.243E-02
RMM:   6    -0.229891262279E+04    0.13523E-05   -0.55059E-05  2910   0.712E-03
  79 F= -.23188898E+04 E0= -.23188898E+04  d E =-.272100E-02  mag=     1.0000
       N       E                     dE             d eps       ncg     rms          rms(c)
DAV:   1    -0.229890599438E+04    0.66298E-02   -0.59945E-01  4360   0.640E-01    0.221E-01
RMM:   2    -0.229891303972E+04   -0.70453E-02   -0.76005E-02  6088   0.145E-01    0.131E-01
RMM:   3    -0.229891339033E+04   -0.35060E-03   -0.71932E-03  5184   0.441E-02    0.842E-02
RMM:   4    -0.229891335510E+04    0.35221E-04   -0.78038E-04  3817   0.103E-02    0.577E-02
RMM:   5    -0.229891329610E+04    0.59008E-04   -0.16327E-04  3763   0.917E-03    0.178E-02
RMM:   6    -0.229891329481E+04    0.12863E-05   -0.30945E-05  2851   0.565E-03
  80 F= -.23188903E+04 E0= -.23188903E+04  d E =-.324376E-02  mag=     1.0000
       N       E                     dE             d eps       ncg     rms          rms(c)
DAV:   1    -0.229890132442E+04    0.11972E-01   -0.12895E+00  4360   0.961E-01    0.319E-01
RMM:   2    -0.229891571731E+04   -0.14393E-01   -0.15398E-01  6057   0.212E-01    0.206E-01
RMM:   3    -0.229891621259E+04   -0.49528E-03   -0.13917E-02  5355   0.655E-02    0.126E-01
RMM:   4    -0.229891609161E+04    0.12098E-03   -0.14859E-03  4512   0.146E-02    0.801E-02
RMM:   5    -0.229891598167E+04    0.10994E-03   -0.33221E-04  4185   0.129E-02    0.249E-02
RMM:   6    -0.229891598149E+04    0.17302E-06   -0.61896E-05  2936   0.759E-03
  81 F= -.23188927E+04 E0= -.23188927E+04  d E =-.239696E-02  mag=     1.0000
       N       E                     dE             d eps       ncg     rms          rms(c)
DAV:   1    -0.229890927786E+04    0.67038E-02   -0.64539E-01  4364   0.680E-01    0.227E-01
RMM:   2    -0.229891641935E+04   -0.71415E-02   -0.76486E-02  6044   0.150E-01    0.147E-01
RMM:   3    -0.229891667570E+04   -0.25635E-03   -0.69063E-03  5138   0.469E-02    0.878E-02
RMM:   4    -0.229891662078E+04    0.54918E-04   -0.74824E-04  4001   0.104E-02    0.568E-02
RMM:   5    -0.229891656520E+04    0.55577E-04   -0.16985E-04  3918   0.953E-03    0.178E-02
RMM:   6    -0.229891656456E+04    0.64159E-06   -0.32027E-05  2851   0.572E-03
  82 F= -.23188931E+04 E0= -.23188931E+04  d E =-.277493E-02  mag=     1.0000
       N       E                     dE             d eps       ncg     rms          rms(c)
DAV:   1    -0.229890563577E+04    0.10929E-01   -0.12350E+00  4360   0.943E-01    0.316E-01
RMM:   2    -0.229891890854E+04   -0.13273E-01   -0.14057E-01  6068   0.209E-01    0.225E-01
RMM:   3    -0.229891908996E+04   -0.18142E-03   -0.12468E-02  5323   0.653E-02    0.120E-01
RMM:   4    -0.229891896771E+04    0.12225E-03   -0.13212E-03  4418   0.142E-02    0.758E-02
RMM:   5    -0.229891887848E+04    0.89222E-04   -0.31421E-04  4152   0.129E-02    0.246E-02
RMM:   6    -0.229891887508E+04    0.34014E-05   -0.59526E-05  2958   0.737E-03
  83 F= -.23188951E+04 E0= -.23188951E+04  d E =-.200892E-02  mag=     1.0000
       N       E                     dE             d eps       ncg     rms          rms(c)
DAV:   1    -0.229891593827E+04    0.29402E-02   -0.30102E-01  4432   0.466E-01    0.158E-01
RMM:   2    -0.229891921726E+04   -0.32790E-02   -0.34705E-02  6110   0.104E-01    0.114E-01
RMM:   3    -0.229891923939E+04   -0.22130E-04   -0.30611E-03  4564   0.325E-02    0.590E-02
RMM:   4    -0.229891921278E+04    0.26608E-04   -0.33495E-04  3226   0.757E-03    0.376E-02
RMM:   5    -0.229891919085E+04    0.21936E-04   -0.79860E-05  3158   0.687E-03    0.124E-02
RMM:   6    -0.229891918995E+04    0.89892E-06   -0.15688E-05  2821   0.486E-03
  84 F= -.23188953E+04 E0= -.23188953E+04  d E =-.217509E-02  mag=     1.0000
       N       E                     dE             d eps       ncg     rms          rms(c)
DAV:   1    -0.229890555629E+04    0.13635E-01   -0.14219E+00  4360   0.101E+00    0.344E-01
RMM:   2    -0.229892161686E+04   -0.16061E-01   -0.16993E-01  6091   0.227E-01    0.243E-01
RMM:   3    -0.229892181042E+04   -0.19356E-03   -0.14584E-02  5370   0.703E-02    0.128E-01
RMM:   4    -0.229892167459E+04    0.13583E-03   -0.16313E-03  4441   0.151E-02    0.809E-02
RMM:   5    -0.229892156029E+04    0.11431E-03   -0.37712E-04  4340   0.139E-02    0.245E-02
RMM:   6    -0.229892155589E+04    0.44003E-05   -0.61823E-05  2971   0.758E-03
  85 F= -.23188973E+04 E0= -.23188973E+04  d E =-.199826E-02  mag=     1.0000
       N       E                     dE             d eps       ncg     rms          rms(c)
DAV:   1    -0.229890918892E+04    0.12371E-01   -0.10952E+00  4360   0.883E-01    0.304E-01
RMM:   2    -0.229892161076E+04   -0.12422E-01   -0.13147E-01  6079   0.199E-01    0.215E-01
RMM:   3    -0.229892172754E+04   -0.11678E-03   -0.11223E-02  5339   0.599E-02    0.113E-01
RMM:   4    -0.229892162152E+04    0.10601E-03   -0.12371E-03  4358   0.132E-02    0.714E-02
RMM:   5    -0.229892153522E+04    0.86307E-04   -0.30003E-04  4198   0.123E-02    0.217E-02
RMM:   6    -0.229892153089E+04    0.43315E-05   -0.48731E-05  2906   0.700E-03
  86 F= -.23188969E+04 E0= -.23188969E+04  d E =-.165214E-02  mag=     1.0000
       N       E                     dE             d eps       ncg     rms          rms(c)
DAV:   1    -0.229891724456E+04    0.42907E-02   -0.40540E-01  4364   0.537E-01    0.183E-01
RMM:   2    -0.229892187459E+04   -0.46300E-02   -0.48897E-02  6195   0.123E-01    0.136E-01
RMM:   3    -0.229892185171E+04    0.22875E-04   -0.41018E-03  4872   0.373E-02    0.669E-02
RMM:   4    -0.229892181712E+04    0.34593E-04   -0.47943E-04  3476   0.846E-03    0.425E-02
RMM:   5    -0.229892178646E+04    0.30662E-04   -0.10539E-04  3478   0.785E-03    0.139E-02
RMM:   6    -0.229892178561E+04    0.85270E-06   -0.18271E-05  2823   0.520E-03
  87 F= -.23188974E+04 E0= -.23188974E+04  d E =-.210192E-02  mag=     1.0000
       N       E                     dE             d eps       ncg     rms          rms(c)
DAV:   1    -0.229890965004E+04    0.12136E-01   -0.13865E+00  4360   0.968E-01    0.326E-01
RMM:   2    -0.229892436693E+04   -0.14717E-01   -0.15526E-01  6124   0.218E-01    0.239E-01
RMM:   3    -0.229892441054E+04   -0.43611E-04   -0.12564E-02  5403   0.666E-02    0.124E-01
RMM:   4    -0.229892427955E+04    0.13098E-03   -0.14451E-03  4415   0.145E-02    0.795E-02
RMM:   5    -0.229892416854E+04    0.11102E-03   -0.37421E-04  4331   0.140E-02    0.229E-02
RMM:   6    -0.229892416559E+04    0.29486E-05   -0.59453E-05  2937   0.739E-03
  88 F= -.23188995E+04 E0= -.23188995E+04  d E =-.206610E-02  mag=     1.0000
       N       E                     dE             d eps       ncg     rms          rms(c)
DAV:   1    -0.229891935680E+04    0.48117E-02   -0.47763E-01  4360   0.569E-01    0.195E-01
RMM:   2    -0.229892454767E+04   -0.51909E-02   -0.54753E-02  6115   0.130E-01    0.145E-01
RMM:   3    -0.229892452984E+04    0.17830E-04   -0.43918E-03  4941   0.391E-02    0.737E-02
RMM:   4    -0.229892448988E+04    0.39952E-04   -0.53146E-04  3619   0.895E-03    0.475E-02
RMM:   5    -0.229892445147E+04    0.38413E-04   -0.13265E-04  3704   0.862E-03    0.141E-02
RMM:   6    -0.229892445006E+04    0.14120E-05   -0.21814E-05  2831   0.532E-03
  89 F= -.23188996E+04 E0= -.23188996E+04  d E =-.216679E-02  mag=     1.0000
       N       E                     dE             d eps       ncg     rms          rms(c)
DAV:   1    -0.229891690058E+04    0.75509E-02   -0.10631E+00  4360   0.831E-01    0.277E-01
RMM:   2    -0.229892688660E+04   -0.99860E-02   -0.10463E-01  6163   0.183E-01    0.215E-01
RMM:   3    -0.229892668547E+04    0.20113E-03   -0.80469E-03  5366   0.530E-02    0.105E-01
RMM:   4    -0.229892659494E+04    0.90527E-04   -0.98474E-04  4270   0.121E-02    0.677E-02
RMM:   5    -0.229892652395E+04    0.70992E-04   -0.27590E-04  4073   0.120E-02    0.196E-02
RMM:   6    -0.229892652278E+04    0.11693E-05   -0.42399E-05  2882   0.649E-03
  90 F= -.23189014E+04 E0= -.23189014E+04  d E =-.179574E-02  mag=     1.0000
       N       E                     dE             d eps       ncg     rms          rms(c)
DAV:   1    -0.229891822997E+04    0.82940E-02   -0.99680E-01  4360   0.805E-01    0.269E-01
RMM:   2    -0.229892763373E+04   -0.94038E-02   -0.98489E-02  6140   0.178E-01    0.208E-01
RMM:   3    -0.229892744568E+04    0.18805E-03   -0.76323E-03  5335   0.506E-02    0.102E-01
RMM:   4    -0.229892736121E+04    0.84471E-04   -0.93166E-04  4252   0.117E-02    0.659E-02
RMM:   5    -0.229892729353E+04    0.67678E-04   -0.26185E-04  4067   0.116E-02    0.192E-02
RMM:   6    -0.229892729189E+04    0.16470E-05   -0.39828E-05  2872   0.637E-03
  91 F= -.23189019E+04 E0= -.23189019E+04  d E =-.229723E-02  mag=     1.0000
       N       E                     dE             d eps       ncg     rms          rms(c)
DAV:   1    -0.229892104364E+04    0.62499E-02   -0.97337E-01  4360   0.813E-01    0.277E-01
RMM:   2    -0.229893013108E+04   -0.90874E-02   -0.95051E-02  6142   0.181E-01    0.214E-01
RMM:   3    -0.229892984240E+04    0.28869E-03   -0.71743E-03  5340   0.516E-02    0.105E-01
RMM:   4    -0.229892973149E+04    0.11091E-03   -0.87974E-04  4236   0.124E-02    0.650E-02
RMM:   5    -0.229892966036E+04    0.71133E-04   -0.26371E-04  4159   0.125E-02    0.177E-02
RMM:   6    -0.229892965946E+04    0.89481E-06   -0.35959E-05  2876   0.642E-03
  92 F= -.23189039E+04 E0= -.23189039E+04  d E =-.202225E-02  mag=     1.0000
       N       E                     dE             d eps       ncg     rms          rms(c)
DAV:   1    -0.229892707778E+04    0.25826E-02   -0.34242E-01  4368   0.483E-01    0.165E-01
RMM:   2    -0.229893032095E+04   -0.32432E-02   -0.33856E-02  6136   0.108E-01    0.130E-01
RMM:   3    -0.229893020417E+04    0.11678E-03   -0.23874E-03  4673   0.303E-02    0.627E-02
RMM:   4    -0.229893016399E+04    0.40176E-04   -0.31660E-04  3386   0.793E-03    0.386E-02
RMM:   5    -0.229893013715E+04    0.26846E-04   -0.89225E-05  3466   0.765E-03    0.113E-02
RMM:   6    -0.229893013686E+04    0.28683E-06   -0.13885E-05  2818   0.493E-03
  93 F= -.23189041E+04 E0= -.23189041E+04  d E =-.229534E-02  mag=     1.0000
       N       E                     dE             d eps       ncg     rms          rms(c)
DAV:   1    -0.229892207174E+04    0.80654E-02   -0.12145E+00  4360   0.926E-01    0.306E-01
RMM:   2    -0.229893319214E+04   -0.11120E-01   -0.11615E-01  6160   0.201E-01    0.242E-01
RMM:   3    -0.229893278118E+04    0.41095E-03   -0.78943E-03  5358   0.560E-02    0.116E-01
RMM:   4    -0.229893262511E+04    0.15608E-03   -0.95810E-04  4319   0.134E-02    0.713E-02
RMM:   5    -0.229893253671E+04    0.88401E-04   -0.31169E-04  4326   0.134E-02    0.202E-02
RMM:   6    -0.229893253515E+04    0.15613E-05   -0.42274E-05  2889   0.716E-03
  94 F= -.23189062E+04 E0= -.23189062E+04  d E =-.205081E-02  mag=     1.0000
       N       E                     dE             d eps       ncg     rms          rms(c)
DAV:   1    -0.229892884862E+04    0.36881E-02   -0.47799E-01  4360   0.582E-01    0.193E-01
RMM:   2    -0.229893328224E+04   -0.44336E-02   -0.46257E-02  6132   0.127E-01    0.152E-01
RMM:   3    -0.229893312188E+04    0.16035E-03   -0.33962E-03  4948   0.358E-02    0.720E-02
RMM:   4    -0.229893306594E+04    0.55941E-04   -0.39927E-04  3713   0.875E-03    0.450E-02
RMM:   5    -0.229893303025E+04    0.35693E-04   -0.12564E-04  3807   0.887E-03    0.132E-02
RMM:   6    -0.229893302888E+04    0.13736E-05   -0.18675E-05  2831   0.515E-03
  95 F= -.23189065E+04 E0= -.23189065E+04  d E =-.232749E-02  mag=     1.0000
       N       E                     dE             d eps       ncg     rms          rms(c)
DAV:   1    -0.229892366449E+04    0.93658E-02   -0.14938E+00  4360   0.104E+00    0.336E-01
RMM:   2    -0.229893609078E+04   -0.12426E-01   -0.12901E-01  6130   0.221E-01    0.277E-01
RMM:   3    -0.229893547523E+04    0.61555E-03   -0.87056E-03  5391   0.609E-02    0.128E-01
RMM:   4    -0.229893528015E+04    0.19508E-03   -0.10695E-03  4376   0.151E-02    0.776E-02
RMM:   5    -0.229893517906E+04    0.10109E-03   -0.36186E-04  4504   0.149E-02    0.223E-02
RMM:   6    -0.229893517689E+04    0.21740E-05   -0.49634E-05  2922   0.770E-03
  96 F= -.23189083E+04 E0= -.23189083E+04  d E =-.181052E-02  mag=     1.0000
       N       E                     dE             d eps       ncg     rms          rms(c)
DAV:   1    -0.229893355108E+04    0.16280E-02   -0.21825E-01  4464   0.397E-01    0.130E-01
RMM:   2    -0.229893539863E+04   -0.18476E-02   -0.19122E-02  6162   0.855E-02    0.106E-01
RMM:   3    -0.229893530442E+04    0.94205E-04   -0.14189E-03  4178   0.239E-02    0.485E-02
RMM:   4    -0.229893527875E+04    0.25674E-04   -0.16810E-04  3028   0.671E-03    0.301E-02
RMM:   5    -0.229893526339E+04    0.15358E-04   -0.54980E-05  3059   0.650E-03    0.930E-03
RMM:   6    -0.229893526302E+04    0.36949E-06   -0.96488E-06  2808   0.440E-03
  97 F= -.23189082E+04 E0= -.23189082E+04  d E =-.176847E-02  mag=     1.0000
       N       E                     dE             d eps       ncg     rms          rms(c)
DAV:   1    -0.229892405727E+04    0.11206E-01   -0.16522E+00  4360   0.107E+00    0.344E-01
RMM:   2    -0.229893812982E+04   -0.14073E-01   -0.14510E-01  6162   0.228E-01    0.298E-01
RMM:   3    -0.229893730810E+04    0.82172E-03   -0.96282E-03  5432   0.621E-02    0.131E-01
RMM:   4    -0.229893710437E+04    0.20373E-03   -0.10947E-03  4360   0.151E-02    0.808E-02
RMM:   5    -0.229893699125E+04    0.11312E-03   -0.39651E-04  4518   0.155E-02    0.238E-02
RMM:   6    -0.229893698959E+04    0.16576E-05   -0.55016E-05  2953   0.779E-03
  98 F= -.23189095E+04 E0= -.23189095E+04  d E =-.130190E-02  mag=     1.0000
       N       E                     dE             d eps       ncg     rms          rms(c)
DAV:   1    -0.229893678763E+04    0.20362E-03   -0.30023E-02  4848   0.144E-01    0.483E-02
RMM:   2    -0.229893704783E+04   -0.26020E-03   -0.26627E-03  6192   0.320E-02    0.409E-02
RMM:   3    -0.229893703116E+04    0.16665E-04   -0.20884E-04  2887   0.917E-03    0.179E-02
RMM:   4    -0.229893702813E+04    0.30313E-05   -0.25542E-05  2828   0.331E-03
  99 F= -.23189095E+04 E0= -.23189095E+04  d E =-.128359E-02  mag=     1.0000
       N       E                     dE             d eps       ncg     rms          rms(c)
DAV:   1    -0.229893181005E+04    0.52211E-02   -0.10319E+00  4392   0.860E-01    0.276E-01
RMM:   2    -0.229893971895E+04   -0.79089E-02   -0.82214E-02  6125   0.179E-01    0.222E-01
RMM:   3    -0.229893929971E+04    0.41924E-03   -0.53820E-03  5310   0.500E-02    0.110E-01
RMM:   4    -0.229893914248E+04    0.15723E-03   -0.66617E-04  4294   0.132E-02    0.639E-02
RMM:   5    -0.229893906967E+04    0.72805E-04   -0.25333E-04  4343   0.131E-02    0.162E-02
RMM:   6    -0.229893906909E+04    0.58288E-06   -0.31237E-05  2865   0.669E-03
 100 F= -.23189112E+04 E0= -.23189112E+04  d E =-.171156E-02  mag=     1.0000
[...]
RMM:   5    -0.229894660876E+04    0.12030E-04   -0.44390E-05  3193   0.686E-03    0.651E-03
RMM:   6    -0.229894660926E+04   -0.50302E-06   -0.75181E-06  2796   0.460E-03
 116 F= -.23189172E+04 E0= -.23189172E+04  d E =-.386424E-03  mag=     1.0000
       N       E                     dE             d eps       ncg     rms          rms(c)
DAV:   1    -0.229894660514E+04    0.36133E-05   -0.72088E-03  4736   0.814E-02    0.235E-02
RMM:   2    -0.229894663365E+04   -0.28504E-04   -0.30301E-04  5540   0.146E-02    0.139E-02
RMM:   3    -0.229894663171E+04    0.19376E-05   -0.19176E-05  2816   0.536E-03
 117 F= -.23189172E+04 E0= -.23189172E+04  d E =-.391374E-03  mag=     1.0000
       N       E                     dE             d eps       ncg     rms          rms(c)
DAV:   1    -0.229894646933E+04    0.16432E-03   -0.15985E-01  4364   0.382E-01    0.112E-01
RMM:   2    -0.229894724707E+04   -0.77775E-03   -0.83830E-03  5963   0.681E-02    0.717E-02
RMM:   3    -0.229894720108E+04    0.45989E-04   -0.47663E-04  3978   0.201E-02    0.468E-02
RMM:   4    -0.229894716820E+04    0.32882E-04   -0.88056E-05  3099   0.703E-03    0.245E-02
RMM:   5    -0.229894715829E+04    0.99099E-05   -0.42369E-05  3159   0.674E-03
 118 F= -.23189177E+04 E0= -.23189177E+04  d E =-.415398E-03  mag=     1.0000
       N       E                     dE             d eps       ncg     rms          rms(c)
DAV:   1    -0.229894701108E+04    0.15712E-03   -0.48967E-02  4368   0.212E-01    0.623E-02
RMM:   2    -0.229894725172E+04   -0.24064E-03   -0.25721E-03  6024   0.391E-02    0.394E-02
RMM:   3    -0.229894723929E+04    0.12430E-04   -0.16600E-04  3441   0.137E-02    0.256E-02
RMM:   4    -0.229894722950E+04    0.97866E-05   -0.25426E-05  2832   0.456E-03
 119 F= -.23189177E+04 E0= -.23189177E+04  d E =-.425165E-03  mag=     1.0000
       N       E                     dE             d eps       ncg     rms          rms(c)
DAV:   1    -0.229894725109E+04   -0.11801E-04   -0.93871E-02  4360   0.284E-01    0.735E-02
RMM:   2    -0.229894766611E+04   -0.41502E-03   -0.44054E-03  5868   0.479E-02    0.530E-02
RMM:   3    -0.229894764180E+04    0.24314E-04   -0.27712E-04  3686   0.179E-02    0.321E-02
RMM:   4    -0.229894762885E+04    0.12946E-04   -0.43365E-05  2858   0.504E-03    0.172E-02
RMM:   5    -0.229894762473E+04    0.41243E-05   -0.20403E-05  2820   0.466E-03
 120 F= -.23189180E+04 E0= -.23189180E+04  d E =-.312046E-03  mag=     1.0000
       N       E                     dE             d eps       ncg     rms          rms(c)
DAV:   1    -0.229894669317E+04    0.93568E-03   -0.30714E-01  4360   0.513E-01    0.133E-01
RMM:   2    -0.229894807980E+04   -0.13866E-02   -0.14682E-02  6129   0.903E-02    0.952E-02
RMM:   3    -0.229894799892E+04    0.80877E-04   -0.83589E-04  4599   0.255E-02    0.570E-02
RMM:   4    -0.229894795666E+04    0.42257E-04   -0.13796E-04  3267   0.778E-03    0.313E-02
RMM:   5    -0.229894794254E+04    0.14123E-04   -0.62950E-05  3515   0.746E-03    0.775E-03
RMM:   6    -0.229894794328E+04   -0.74328E-06   -0.72203E-06  2792   0.475E-03
 121 F= -.23189182E+04 E0= -.23189182E+04  d E =-.482072E-03  mag=     1.0000
       N       E                     dE             d eps       ncg     rms          rms(c)
DAV:   1    -0.229894809240E+04   -0.14986E-03   -0.14334E-01  4360   0.352E-01    0.987E-02
RMM:   2    -0.229894858382E+04   -0.49142E-03   -0.53516E-03  5845   0.594E-02    0.583E-02
RMM:   3    -0.229894855614E+04    0.27687E-04   -0.32895E-04  3809   0.179E-02    0.426E-02
RMM:   4    -0.229894852899E+04    0.27145E-04   -0.67701E-05  2947   0.670E-03    0.218E-02
RMM:   5    -0.229894852079E+04    0.82044E-05   -0.37294E-05  3117   0.623E-03
 122 F= -.23189187E+04 E0= -.23189187E+04  d E =-.507380E-03  mag=     1.0000
       N       E                     dE             d eps       ncg     rms          rms(c)
DAV:   1    -0.229894828081E+04    0.24819E-03   -0.12748E-01  4368   0.332E-01    0.934E-02
RMM:   2    -0.229894871582E+04   -0.43502E-03   -0.47379E-03  5912   0.575E-02    0.536E-02
RMM:   3    -0.229894869585E+04    0.19970E-04   -0.32019E-04  3969   0.207E-02    0.394E-02
RMM:   4    -0.229894867243E+04    0.23422E-04   -0.55611E-05  2911   0.631E-03    0.207E-02
RMM:   5    -0.229894866394E+04    0.84904E-05   -0.31751E-05  2973   0.581E-03
 123 F= -.23189187E+04 E0= -.23189187E+04  d E =-.584980E-03  mag=     1.0000
       N       E                     dE             d eps       ncg     rms          rms(c)
DAV:   1    -0.229894860844E+04    0.63985E-04   -0.17447E-01  4360   0.382E-01    0.985E-02
RMM:   2    -0.229894924170E+04   -0.63325E-03   -0.67635E-03  6064   0.659E-02    0.634E-02
RMM:   3    -0.229894921672E+04    0.24979E-04   -0.39506E-04  4013   0.209E-02    0.435E-02
RMM:   4    -0.229894919191E+04    0.24811E-04   -0.71201E-05  2933   0.686E-03    0.238E-02
RMM:   5    -0.229894918408E+04    0.78328E-05   -0.38545E-05  3061   0.636E-03
 124 F= -.23189192E+04 E0= -.23189192E+04  d E =-.416204E-03  mag=     1.0000
       N       E                     dE             d eps       ncg     rms          rms(c)
DAV:   1    -0.229894869664E+04    0.49527E-03   -0.21283E-01  4360   0.422E-01    0.109E-01
RMM:   2    -0.229894947416E+04   -0.77752E-03   -0.83047E-03  6019   0.726E-02    0.706E-02
RMM:   3    -0.229894944157E+04    0.32594E-04   -0.49428E-04  4211   0.243E-02    0.483E-02
RMM:   4    -0.229894941054E+04    0.31024E-04   -0.87594E-05  3056   0.729E-03    0.264E-02
RMM:   5    -0.229894940044E+04    0.10101E-04   -0.44983E-05  3203   0.680E-03    0.690E-03
RMM:   6    -0.229894940120E+04   -0.76152E-06   -0.64195E-06  2790   0.457E-03
 125 F= -.23189193E+04 E0= -.23189193E+04  d E =-.519758E-03  mag=     1.0000
       N       E                     dE             d eps       ncg     rms          rms(c)
DAV:   1    -0.229894935570E+04    0.44741E-04   -0.19616E-01  4360   0.412E-01    0.113E-01
RMM:   2    -0.229895016634E+04   -0.81064E-03   -0.87765E-03  5807   0.703E-02    0.707E-02
RMM:   3    -0.229895012572E+04    0.40617E-04   -0.48254E-04  4122   0.217E-02    0.485E-02
RMM:   4    -0.229895009072E+04    0.35006E-04   -0.90066E-05  3100   0.695E-03    0.252E-02
RMM:   5    -0.229895007964E+04    0.11082E-04   -0.43254E-05  3151   0.661E-03    0.638E-03
RMM:   6    -0.229895008007E+04   -0.43277E-06   -0.65485E-06  2794   0.446E-03
 126 F= -.23189198E+04 E0= -.23189198E+04  d E =-.553902E-03  mag=     1.0000
       N       E                     dE             d eps       ncg     rms          rms(c)
DAV:   1    -0.229894985902E+04    0.22061E-03   -0.11390E-01  4368   0.314E-01    0.862E-02
RMM:   2    -0.229895033075E+04   -0.47173E-03   -0.51055E-03  5782   0.539E-02    0.538E-02
RMM:   3    -0.229895030547E+04    0.25280E-04   -0.27594E-04  3730   0.168E-02    0.371E-02
RMM:   4    -0.229895028485E+04    0.20621E-04   -0.52333E-05  2895   0.583E-03    0.194E-02
RMM:   5    -0.229895027752E+04    0.73320E-05   -0.27580E-05  2888   0.545E-03
 127 F= -.23189199E+04 E0= -.23189199E+04  d E =-.656900E-03  mag=     1.0000
       N       E                     dE             d eps       ncg     rms          rms(c)
DAV:   1    -0.229895041287E+04   -0.12802E-03   -0.13456E-01  4360   0.343E-01    0.931E-02
RMM:   2    -0.229895089090E+04   -0.47803E-03   -0.52386E-03  5979   0.597E-02    0.559E-02
RMM:   3    -0.229895086886E+04    0.22043E-04   -0.30086E-04  3965   0.188E-02    0.403E-02
RMM:   4    -0.229895084552E+04    0.23336E-04   -0.58530E-05  2956   0.658E-03    0.218E-02
RMM:   5    -0.229895083784E+04    0.76794E-05   -0.34989E-05  3067   0.610E-03
 128 F= -.23189204E+04 E0= -.23189204E+04  d E =-.467248E-03  mag=     1.0000
       N       E                     dE             d eps       ncg     rms          rms(c)
DAV:   1    -0.229895071396E+04    0.13156E-03   -0.83860E-02  4384   0.271E-01    0.738E-02
RMM:   2    -0.229895101608E+04   -0.30212E-03   -0.33006E-03  5968   0.475E-02    0.442E-02
RMM:   3    -0.229895100121E+04    0.14862E-04   -0.19279E-04  3672   0.157E-02    0.320E-02
RMM:   4    -0.229895098680E+04    0.14410E-04   -0.37409E-05  2859   0.559E-03    0.176E-02
RMM:   5    -0.229895098118E+04    0.56227E-05   -0.23504E-05  2847   0.509E-03
 129 F= -.23189205E+04 E0= -.23189205E+04  d E =-.537540E-03  mag=     1.0000
       N       E                     dE             d eps       ncg     rms          rms(c)
DAV:   1    -0.229895097509E+04    0.11711E-04   -0.16949E-01  4360   0.383E-01    0.100E-01
RMM:   2    -0.229895152900E+04   -0.55391E-03   -0.60311E-03  5902   0.647E-02    0.565E-02
RMM:   3    -0.229895151174E+04    0.17260E-04   -0.37226E-04  4061   0.215E-02    0.409E-02
RMM:   4    -0.229895148955E+04    0.22186E-04   -0.68688E-05  2964   0.680E-03    0.241E-02
RMM:   5    -0.229895148019E+04    0.93671E-05   -0.40453E-05  3091   0.635E-03
 130 F= -.23189208E+04 E0= -.23189208E+04  d E =-.393453E-03  mag=     1.0000
       N       E                     dE             d eps       ncg     rms          rms(c)
DAV:   1    -0.229895132942E+04    0.16013E-03   -0.86432E-02  4368   0.274E-01    0.718E-02
RMM:   2    -0.229895161696E+04   -0.28754E-03   -0.31147E-03  5938   0.469E-02    0.401E-02
RMM:   3    -0.229895160701E+04    0.99568E-05   -0.19688E-04  3672   0.160E-02    0.290E-02
RMM:   4    -0.229895159627E+04    0.10735E-04   -0.35076E-05  2861   0.535E-03    0.175E-02
RMM:   5    -0.229895159082E+04    0.54476E-05   -0.21745E-05  2824   0.481E-03
 131 F= -.23189209E+04 E0= -.23189209E+04  d E =-.429081E-03  mag=     1.0000
       N       E                     dE             d eps       ncg     rms          rms(c)
DAV:   1    -0.229895154391E+04    0.52360E-04   -0.16731E-01  4360   0.380E-01    0.101E-01
RMM:   2    -0.229895218265E+04   -0.63873E-03   -0.69330E-03  5938   0.655E-02    0.579E-02
RMM:   3    -0.229895216610E+04    0.16545E-04   -0.44029E-04  4030   0.218E-02    0.398E-02
RMM:   4    -0.229895214667E+04    0.19429E-04   -0.75606E-05  2970   0.689E-03    0.245E-02
RMM:   5    -0.229895213734E+04    0.93301E-05   -0.43977E-05  3097   0.646E-03
 132 F= -.23189213E+04 E0= -.23189213E+04  d E =-.431318E-03  mag=     1.0000
       N       E                     dE             d eps       ncg     rms          rms(c)
DAV:   1    -0.229895191216E+04    0.23451E-03   -0.10183E-01  4364   0.297E-01    0.793E-02
RMM:   2    -0.229895230628E+04   -0.39412E-03   -0.42699E-03  5949   0.517E-02    0.453E-02
RMM:   3    -0.229895229442E+04    0.11868E-04   -0.27576E-04  3769   0.183E-02    0.314E-02
RMM:   4    -0.229895228233E+04    0.12087E-04   -0.45164E-05  2866   0.580E-03    0.195E-02
RMM:   5    -0.229895227565E+04    0.66821E-05   -0.27695E-05  2853   0.536E-03
 133 F= -.23189214E+04 E0= -.23189214E+04  d E =-.480167E-03  mag=     1.0000
       N       E                     dE             d eps       ncg     rms          rms(c)
DAV:   1    -0.229895213184E+04    0.15049E-03   -0.16649E-01  4360   0.379E-01    0.104E-01
RMM:   2    -0.229895279361E+04   -0.66176E-03   -0.72668E-03  5981   0.663E-02    0.563E-02
RMM:   3    -0.229895278623E+04    0.73803E-05   -0.55299E-04  4097   0.229E-02    0.379E-02
RMM:   4    -0.229895276975E+04    0.16474E-04   -0.82513E-05  3039   0.700E-03    0.248E-02
RMM:   5    -0.229895275977E+04    0.99853E-05   -0.41784E-05  2986   0.653E-03
 134 F= -.23189218E+04 E0= -.23189218E+04  d E =-.394243E-03  mag=     1.0000
       N       E                     dE             d eps       ncg     rms          rms(c)
DAV:   1    -0.229895263938E+04    0.13037E-03   -0.45201E-02  4432   0.198E-01    0.550E-02
RMM:   2    -0.229895282496E+04   -0.18558E-03   -0.20234E-03  5960   0.359E-02    0.293E-02
RMM:   3    -0.229895282173E+04    0.32310E-05   -0.15551E-04  3277   0.125E-02    0.196E-02
RMM:   4    -0.229895281756E+04    0.41657E-05   -0.21969E-05  2826   0.437E-03
 135 F= -.23189218E+04 E0= -.23189218E+04  d E =-.405279E-03  mag=     1.0000
       N       E                     dE             d eps       ncg     rms          rms(c)
DAV:   1    -0.229895260960E+04    0.21212E-03   -0.20338E-01  4360   0.414E-01    0.108E-01
RMM:   2    -0.229895331525E+04   -0.70564E-03   -0.78020E-03  5527   0.664E-02    0.572E-02
RMM:   3    -0.229895331483E+04    0.41856E-06   -0.66554E-04  4269   0.269E-02    0.394E-02
RMM:   4    -0.229895330103E+04    0.13802E-04   -0.95039E-05  3216   0.693E-03    0.273E-02
RMM:   5    -0.229895328873E+04    0.12295E-04   -0.45186E-05  2983   0.646E-03    0.805E-03
RMM:   6    -0.229895328882E+04   -0.88578E-07   -0.80201E-06  2796   0.440E-03
 136 F= -.23189222E+04 E0= -.23189222E+04  d E =-.383206E-03  mag=     1.0000
       N       E                     dE             d eps       ncg     rms          rms(c)
DAV:   1    -0.229895325701E+04    0.31718E-04   -0.20636E-02  4528   0.132E-01    0.347E-02
RMM:   2    -0.229895333209E+04   -0.75075E-04   -0.81986E-04  5558   0.220E-02    0.177E-02
RMM:   3    -0.229895333077E+04    0.13187E-05   -0.65195E-05  2859   0.818E-03
 137 F= -.23189222E+04 E0= -.23189222E+04  d E =-.397321E-03  mag=     1.0000
       N       E                     dE             d eps       ncg     rms          rms(c)
DAV:   1    -0.229895329523E+04    0.36857E-04   -0.19912E-01  4360   0.418E-01    0.116E-01
RMM:   2    -0.229895397544E+04   -0.68021E-03   -0.76601E-03  5521   0.669E-02    0.538E-02
RMM:   3    -0.229895395779E+04    0.17651E-04   -0.59432E-04  4277   0.237E-02    0.330E-02
RMM:   4    -0.229895394010E+04    0.17689E-04   -0.12761E-04  3937   0.846E-03    0.123E-02
RMM:   5    -0.229895394092E+04   -0.82215E-06   -0.12775E-05  2800   0.569E-03
 138 F= -.23189226E+04 E0= -.23189226E+04  d E =-.463198E-03  mag=     1.0000
       N       E                     dE             d eps       ncg     rms          rms(c)
DAV:   1    -0.229895392859E+04    0.11505E-04   -0.22793E-02  4480   0.142E-01    0.392E-02
RMM:   2    -0.229895400829E+04   -0.79699E-04   -0.88409E-04  5551   0.234E-02    0.186E-02
RMM:   3    -0.229895400668E+04    0.16070E-05   -0.71279E-05  2867   0.904E-03
 139 F= -.23189226E+04 E0= -.23189226E+04  d E =-.479293E-03  mag=     1.0000
       N       E                     dE             d eps       ncg     rms          rms(c)
DAV:   1    -0.229895382748E+04    0.18081E-03   -0.20303E-01  4360   0.416E-01    0.108E-01
RMM:   2    -0.229895455349E+04   -0.72600E-03   -0.80824E-03  5549   0.660E-02    0.539E-02
RMM:   3    -0.229895454904E+04    0.44487E-05   -0.61839E-04  4277   0.239E-02    0.335E-02
RMM:   4    -0.229895453289E+04    0.16153E-04   -0.13342E-04  3945   0.854E-03    0.123E-02
RMM:   5    -0.229895453484E+04   -0.19502E-05   -0.12137E-05  2801   0.556E-03
 140 F= -.23189230E+04 E0= -.23189230E+04  d E =-.390257E-03  mag=     1.0000
       N       E                     dE             d eps       ncg     rms          rms(c)
DAV:   1    -0.229895453047E+04    0.24144E-05   -0.12129E-02  4720   0.102E-01    0.271E-02
RMM:   2    -0.229895457644E+04   -0.45965E-04   -0.49957E-04  5480   0.168E-02    0.149E-02
RMM:   3    -0.229895457601E+04    0.42633E-06   -0.40753E-05  2815   0.687E-03
 141 F= -.23189230E+04 E0= -.23189230E+04  d E =-.397807E-03  mag=     1.0000
       N       E                     dE             d eps       ncg     rms          rms(c)
DAV:   1    -0.229895429516E+04    0.28128E-03   -0.21046E-01  4360   0.426E-01    0.117E-01
RMM:   2    -0.229895505890E+04   -0.76374E-03   -0.85758E-03  5505   0.682E-02    0.561E-02
RMM:   3    -0.229895504327E+04    0.15632E-04   -0.66568E-04  4343   0.251E-02    0.343E-02
RMM:   4    -0.229895502688E+04    0.16391E-04   -0.14594E-04  3977   0.895E-03    0.156E-02
RMM:   5    -0.229895502801E+04   -0.11291E-05   -0.17019E-05  2823   0.629E-03
 142 F= -.23189234E+04 E0= -.23189234E+04  d E =-.391310E-03  mag=     1.0000
       N       E                     dE             d eps       ncg     rms          rms(c)
DAV:   1    -0.229895502480E+04    0.20760E-05   -0.11951E-03  5192   0.324E-02    0.105E-02
RMM:   2    -0.229895502950E+04   -0.46981E-05   -0.54335E-05  3106   0.609E-03
 143 F= -.23189234E+04 E0= -.23189234E+04  d E =-.388213E-03  mag=     1.0000
       N       E                     dE             d eps       ncg     rms          rms(c)
DAV:   1    -0.229895487302E+04    0.15178E-03   -0.15936E-01  4360   0.369E-01    0.100E-01
RMM:   2    -0.229895543963E+04   -0.56661E-03   -0.63166E-03  5822   0.595E-02    0.481E-02
RMM:   3    -0.229895544156E+04   -0.19246E-05   -0.53746E-04  4112   0.231E-02    0.296E-02
RMM:   4    -0.229895543108E+04    0.10480E-04   -0.10657E-04  3849   0.784E-03    0.155E-02
RMM:   5    -0.229895543178E+04   -0.70379E-06   -0.15941E-05  2829   0.550E-03
 144 F= -.23189238E+04 E0= -.23189238E+04  d E =-.341031E-03  mag=     1.0000
       N       E                     dE             d eps       ncg     rms          rms(c)
DAV:   1    -0.229895540962E+04    0.21459E-04   -0.10378E-02  4640   0.944E-02    0.263E-02
RMM:   2    -0.229895544821E+04   -0.38593E-04   -0.42536E-04  5472   0.159E-02    0.130E-02
RMM:   3    -0.229895544818E+04    0.36525E-07   -0.35152E-05  2805   0.641E-03
 145 F= -.23189238E+04 E0= -.23189238E+04  d E =-.341804E-03  mag=     1.0000
       N       E                     dE             d eps       ncg     rms          rms(c)
DAV:   1    -0.229895536956E+04    0.78650E-04   -0.16321E-01  4360   0.375E-01    0.102E-01
RMM:   2    -0.229895595879E+04   -0.58923E-03   -0.65667E-03  5456   0.594E-02    0.490E-02
RMM:   3    -0.229895595070E+04    0.80871E-05   -0.49516E-04  4071   0.224E-02    0.309E-02
RMM:   4    -0.229895594559E+04    0.51099E-05   -0.11200E-04  3797   0.750E-03    0.241E-02
RMM:   5    -0.229895593758E+04    0.80101E-05   -0.25871E-05  2820   0.560E-03
 146 F= -.23189241E+04 E0= -.23189241E+04  d E =-.344089E-03  mag=     1.0000
       N       E                     dE             d eps       ncg     rms          rms(c)
DAV:   1    -0.229895590202E+04    0.43571E-04   -0.25080E-02  4384   0.147E-01    0.405E-02
RMM:   2    -0.229895599528E+04   -0.93262E-04   -0.10295E-03  5624   0.246E-02    0.192E-02
RMM:   3    -0.229895599502E+04    0.26271E-06   -0.84737E-05  2940   0.102E-02
 147 F= -.23189241E+04 E0= -.23189241E+04  d E =-.344495E-03  mag=     1.0000
       N       E                     dE             d eps       ncg     rms          rms(c)
DAV:   1    -0.229895597664E+04    0.18640E-04   -0.13310E-01  4360   0.333E-01    0.868E-02
RMM:   2    -0.229895645626E+04   -0.47961E-03   -0.52805E-03  5558   0.526E-02    0.445E-02
RMM:   3    -0.229895645564E+04    0.61693E-06   -0.39443E-04  3818   0.196E-02    0.295E-02
RMM:   4    -0.229895645295E+04    0.26925E-05   -0.76370E-05  3028   0.634E-03
 148 F= -.23189244E+04 E0= -.23189244E+04  d E =-.326745E-03  mag=     1.0000
       N       E                     dE             d eps       ncg     rms          rms(c)
DAV:   1    -0.229895621291E+04    0.24273E-03   -0.10664E-01  4364   0.298E-01    0.769E-02
RMM:   2    -0.229895660252E+04   -0.38961E-03   -0.42890E-03  5830   0.481E-02    0.383E-02
RMM:   3    -0.229895660123E+04    0.12893E-05   -0.32110E-04  3684   0.165E-02    0.244E-02
RMM:   4    -0.229895659930E+04    0.19323E-05   -0.65270E-05  2926   0.599E-03
 149 F= -.23189245E+04 E0= -.23189245E+04  d E =-.355586E-03  mag=     1.0000
       N       E                     dE             d eps       ncg     rms          rms(c)
DAV:   1    -0.229895655937E+04    0.41860E-04   -0.13021E-01  4392   0.330E-01    0.849E-02
RMM:   2    -0.229895702413E+04   -0.46476E-03   -0.51270E-03  5746   0.532E-02    0.412E-02
RMM:   3    -0.229895702597E+04   -0.18392E-05   -0.39620E-04  3895   0.200E-02    0.258E-02
RMM:   4    -0.229895701982E+04    0.61469E-05   -0.77856E-05  3310   0.666E-03
 150 F= -.23189248E+04 E0= -.23189248E+04  d E =-.323504E-03  mag=     1.0000
