       N       E                     dE             d eps       ncg     rms          rms(c)
DAV:   1     0.130692651438E+05    0.13069E+05   -0.84132E+05  4500   0.144E+03
DAV:   2    -0.105650108572E+04   -0.14126E+05   -0.13524E+05  4950   0.330E+02
DAV:   3    -0.247973465102E+04   -0.14232E+04   -0.14085E+04  5400   0.113E+02
DAV:   4    -0.252024816674E+04   -0.40514E+02   -0.40313E+02  6450   0.266E+01
DAV:   5    -0.252105116403E+04   -0.80300E+00   -0.80132E+00  5610   0.301E+00    0.170E+02
RMM:   6    -0.149240505075E+04    0.10286E+04   -0.19352E+03  4465   0.381E+01    0.722E+01
RMM:   7    -0.165162752318E+04   -0.15922E+03   -0.29135E+02  5090   0.146E+01    0.473E+01
RMM:   8    -0.171416682910E+04   -0.62539E+02   -0.37184E+01  5412   0.673E+00    0.404E+01
RMM:   9    -0.181620347554E+04   -0.10204E+03   -0.68686E+01  5262   0.769E+00    0.371E+01
RMM:  10    -0.193117189026E+04   -0.11497E+03   -0.55987E+01  5520   0.715E+00    0.244E+01
RMM:  11    -0.198956738740E+04   -0.58395E+02   -0.23558E+01  5261   0.427E+00    0.197E+01
RMM:  12    -0.206376948206E+04   -0.74202E+02   -0.27504E+01  5021   0.413E+00    0.143E+01
RMM:  13    -0.215560798726E+04   -0.91839E+02   -0.48986E+01  4827   0.548E+00    0.172E+01
RMM:  14    -0.221820200298E+04   -0.62594E+02   -0.38065E+01  5016   0.485E+00    0.939E+00
RMM:  15    -0.228945899497E+04   -0.71257E+02   -0.64935E+01  4450   0.546E+00    0.626E+00
RMM:  16    -0.230361908658E+04   -0.14160E+02   -0.14970E+01  4547   0.351E+00    0.387E+00
RMM:  17    -0.231106287955E+04   -0.74438E+01   -0.90804E+00  4748   0.167E+00    0.231E+00
RMM:  18    -0.231261296183E+04   -0.15501E+01   -0.17127E+00  4859   0.126E+00    0.177E+00
RMM:  19    -0.231341347923E+04   -0.80052E+00   -0.10403E+00  4620   0.482E-01    0.124E+00
RMM:  20    -0.231381106929E+04   -0.39759E+00   -0.39372E-01  4601   0.426E-01    0.826E-01
RMM:  21    -0.231397798083E+04   -0.16691E+00   -0.15281E-01  5002   0.224E-01    0.369E-01
RMM:  22    -0.231402844521E+04   -0.50464E-01   -0.31634E-02  4971   0.125E-01    0.217E-01
RMM:  23    -0.231406942193E+04   -0.40977E-01   -0.18006E-02  4476   0.840E-02    0.139E-01
RMM:  24    -0.231408643528E+04   -0.17013E-01   -0.55071E-03  4632   0.600E-02    0.875E-02
RMM:  25    -0.231409759812E+04   -0.11163E-01   -0.31224E-03  4560   0.389E-02    0.636E-02
RMM:  26    -0.231410555693E+04   -0.79588E-02   -0.21380E-03  4516   0.354E-02    0.345E-02
RMM:  27    -0.231410942366E+04   -0.38667E-02   -0.13515E-03  4397   0.248E-02    0.214E-02
RMM:  28    -0.231411047380E+04   -0.10501E-02   -0.41168E-04  4217   0.160E-02    0.129E-02
RMM:  29    -0.231411090217E+04   -0.42838E-03   -0.14133E-04  3803   0.771E-03    0.767E-03
RMM:  30    -0.231411104387E+04   -0.14169E-03   -0.35715E-05  3256   0.608E-03    0.367E-03
RMM:  31    -0.231411111948E+04   -0.75610E-04   -0.19320E-05  3025   0.371E-03    0.199E-03
RMM:  32    -0.231411114698E+04   -0.27502E-04   -0.77804E-06  2857   0.323E-03    0.149E-03
RMM:  33    -0.231411115631E+04   -0.93336E-05   -0.43070E-06  2516   0.231E-03
   1 F= -.23354134E+04 E0= -.23354133E+04  d E =-.124629E-03  mag=     3.9990
       N       E                     dE             d eps       ncg     rms          rms(c)
DAV:   1    -0.231410225204E+04    0.88949E-02   -0.20054E+00  4500   0.590E-01    0.255E-01
RMM:   2    -0.231410246825E+04   -0.21621E-03   -0.10951E-02  4234   0.597E-02    0.221E-01
RMM:   3    -0.231410253451E+04   -0.66260E-04   -0.22981E-03  4377   0.231E-02    0.250E-01
RMM:   4    -0.231410193943E+04    0.59508E-03   -0.84259E-04  4288   0.130E-02    0.850E-02
RMM:   5    -0.231410196282E+04   -0.23395E-04   -0.38571E-04  3360   0.954E-03    0.836E-02
RMM:   6    -0.231410186216E+04    0.10066E-03   -0.97943E-05  3163   0.594E-03    0.163E-02
RMM:   7    -0.231410186499E+04   -0.28283E-05   -0.20348E-05  2758   0.264E-03
   2 F= -.23354054E+04 E0= -.23354054E+04  d E =-.116231E-03  mag=     3.9990
       N       E                     dE             d eps       ncg     rms          rms(c)
DAV:   1    -0.231411455283E+04   -0.12691E-01   -0.80081E+00  4500   0.116E+00    0.505E-01
RMM:   2    -0.231411508012E+04   -0.52729E-03   -0.40656E-02  4616   0.113E-01    0.423E-01
RMM:   3    -0.231411540415E+04   -0.32403E-03   -0.89739E-03  4998   0.451E-02    0.492E-01
RMM:   4    -0.231411311201E+04    0.22921E-02   -0.32548E-03  5202   0.246E-02    0.173E-01
RMM:   5    -0.231411317750E+04   -0.65487E-04   -0.15196E-03  4404   0.180E-02    0.163E-01
RMM:   6    -0.231411279175E+04    0.38576E-03   -0.35703E-04  3880   0.989E-03    0.316E-02
RMM:   7    -0.231411280063E+04   -0.88839E-05   -0.74567E-05  3038   0.446E-03
   3 F= -.23354137E+04 E0= -.23354137E+04  d E =-.138549E-03  mag=     3.9989
       N       E                     dE             d eps       ncg     rms          rms(c)
DAV:   1    -0.231411340969E+04   -0.61795E-03   -0.40334E+00  4440   0.978E-01    0.379E-01
RMM:   2    -0.231411415116E+04   -0.74147E-03   -0.19830E-02  4328   0.880E-02    0.323E-01
RMM:   3    -0.231411409572E+04    0.55443E-04   -0.45823E-03  4843   0.343E-02    0.305E-01
RMM:   4    -0.231411311778E+04    0.97794E-03   -0.21316E-03  4627   0.199E-02    0.168E-01
RMM:   5    -0.231411290843E+04    0.20935E-03   -0.67413E-04  3751   0.135E-02    0.937E-02
RMM:   6    -0.231411281792E+04    0.90510E-04   -0.81029E-05  2926   0.528E-03    0.212E-02
RMM:   7    -0.231411281992E+04   -0.19991E-05   -0.36633E-05  2807   0.323E-03
   4 F= -.23354132E+04 E0= -.23354131E+04  d E =-.839739E-04  mag=     3.9992
       N       E                     dE             d eps       ncg     rms          rms(c)
DAV:   1    -0.231407003920E+04    0.42779E-01   -0.82963E+00  4440   0.151E+00    0.637E-01
RMM:   2    -0.231407153809E+04   -0.14989E-02   -0.62488E-02  4710   0.152E-01    0.518E-01
RMM:   3    -0.231407119999E+04    0.33810E-03   -0.13056E-02  5707   0.631E-02    0.496E-01
RMM:   4    -0.231406798716E+04    0.32128E-02   -0.58785E-03  5620   0.335E-02    0.120E-01
RMM:   5    -0.231406784914E+04    0.13802E-03   -0.74831E-04  4358   0.122E-02    0.377E-02
RMM:   6    -0.231406784099E+04    0.81534E-05   -0.10267E-04  3516   0.556E-03    0.397E-02
RMM:   7    -0.231406782510E+04    0.15889E-04   -0.51577E-05  2895   0.437E-03    0.210E-02
RMM:   8    -0.231406782231E+04    0.27874E-05   -0.11292E-05  2832   0.267E-03
   5 F= -.23353718E+04 E0= -.23353717E+04  d E =-.179371E-03  mag=     3.9987
       N       E                     dE             d eps       ncg     rms          rms(c)
DAV:   1    -0.231412214158E+04   -0.54316E-01   -0.43327E+00  4440   0.108E+00    0.472E-01
RMM:   2    -0.231412238434E+04   -0.24276E-03   -0.34902E-02  4644   0.102E-01    0.335E-01
RMM:   3    -0.231412241486E+04   -0.30520E-04   -0.60201E-03  4956   0.468E-02    0.399E-01
RMM:   4    -0.231412081713E+04    0.15977E-02   -0.33823E-03  5435   0.252E-02    0.191E-01
RMM:   5    -0.231412088457E+04   -0.67449E-04   -0.13434E-03  4544   0.154E-02    0.174E-01
RMM:   6    -0.231412045645E+04    0.42812E-03   -0.29077E-04  3089   0.832E-03    0.241E-02
RMM:   7    -0.231412045183E+04    0.46248E-05   -0.61705E-05  3142   0.414E-03
   6 F= -.23354242E+04 E0= -.23354241E+04  d E =-.123499E-03  mag=     3.9989
       N       E                     dE             d eps       ncg     rms          rms(c)
DAV:   1    -0.231408816923E+04    0.32287E-01   -0.79598E+00  4440   0.134E+00    0.583E-01
RMM:   2    -0.231408924647E+04   -0.10772E-02   -0.61943E-02  4807   0.133E-01    0.370E-01
RMM:   3    -0.231409153349E+04   -0.22870E-02   -0.12094E-02  5365   0.532E-02    0.581E-01
RMM:   4    -0.231408739601E+04    0.41375E-02   -0.47056E-03  5432   0.302E-02    0.190E-01
RMM:   5    -0.231408749346E+04   -0.97442E-04   -0.17710E-03  4835   0.170E-02    0.204E-01
RMM:   6    -0.231408709531E+04    0.39814E-03   -0.52845E-04  3454   0.101E-02    0.406E-02
RMM:   7    -0.231408710292E+04   -0.76053E-05   -0.77655E-05  3120   0.473E-03
   7 F= -.23353876E+04 E0= -.23353875E+04  d E =-.137411E-03  mag=     3.9989
       N       E                     dE             d eps       ncg     rms          rms(c)
DAV:   1    -0.231411176759E+04   -0.24672E-01   -0.22771E+00  4440   0.717E-01    0.351E-01
RMM:   2    -0.231411219317E+04   -0.42558E-03   -0.17663E-02  4687   0.678E-02    0.221E-01
RMM:   3    -0.231411317908E+04   -0.98591E-03   -0.36907E-03  4589   0.304E-02    0.380E-01
RMM:   4    -0.231411157478E+04    0.16043E-02   -0.16018E-03  4715   0.180E-02    0.858E-02
RMM:   5    -0.231411155232E+04    0.22459E-04   -0.30634E-04  3869   0.828E-03    0.495E-02
RMM:   6    -0.231411153673E+04    0.15592E-04   -0.83556E-05  2906   0.530E-03    0.284E-02
RMM:   7    -0.231411153008E+04    0.66465E-05   -0.17409E-05  2785   0.292E-03
   8 F= -.23354136E+04 E0= -.23354135E+04  d E =-.130022E-03  mag=     3.9989
       N       E                     dE             d eps       ncg     rms          rms(c)
DAV:   1    -0.231410938048E+04    0.21562E-02   -0.12284E+00  4560   0.528E-01    0.388E-01
RMM:   2    -0.231410939230E+04   -0.11818E-04   -0.65215E-03  5144   0.470E-02    0.251E-01
RMM:   3    -0.231411085100E+04   -0.14587E-02   -0.39529E-03  5302   0.273E-02    0.364E-01
RMM:   4    -0.231410906913E+04    0.17819E-02   -0.15098E-03  4858   0.194E-02    0.270E-02
RMM:   5    -0.231410907824E+04   -0.91076E-05   -0.16759E-04  3103   0.550E-03    0.427E-02
RMM:   6    -0.231410905965E+04    0.18588E-04   -0.26695E-05  2784   0.354E-03    0.150E-02
RMM:   7    -0.231410905748E+04    0.21663E-05   -0.67691E-06  2712   0.185E-03
   9 F= -.23354115E+04 E0= -.23354114E+04  d E =-.119589E-03  mag=     3.9990
       N       E                     dE             d eps       ncg     rms          rms(c)
DAV:   1    -0.231407924705E+04    0.29813E-01   -0.69065E-01  4620   0.392E-01    0.402E-01
RMM:   2    -0.231407752892E+04    0.17181E-02   -0.98385E-03  4472   0.509E-02    0.241E-01
RMM:   3    -0.231407723401E+04    0.29491E-03   -0.18401E-03  4199   0.290E-02    0.187E-01
RMM:   4    -0.231407737161E+04   -0.13760E-03   -0.14762E-03  4630   0.169E-02    0.198E-01
RMM:   5    -0.231407685896E+04    0.51265E-03   -0.51128E-04  3531   0.110E-02    0.655E-02
RMM:   6    -0.231407682587E+04    0.33089E-04   -0.11683E-04  2996   0.635E-03    0.406E-02
RMM:   7    -0.231407680671E+04    0.19164E-04   -0.20753E-05  2684   0.323E-03    0.113E-02
RMM:   8    -0.231407680676E+04   -0.48734E-07   -0.68254E-06  2467   0.181E-03
  10 F= -.23353785E+04 E0= -.23353784E+04  d E =-.125551E-03  mag=     3.9990
       N       E                     dE             d eps       ncg     rms          rms(c)
DAV:   1    -0.231412619107E+04   -0.49384E-01   -0.13890E+00  4800   0.557E-01    0.626E-01
RMM:   2    -0.231412072229E+04    0.54688E-02   -0.26948E-02  4750   0.787E-02    0.360E-01
RMM:   3    -0.231411940231E+04    0.13200E-02   -0.39754E-03  4334   0.439E-02    0.247E-01
RMM:   4    -0.231412046637E+04   -0.10641E-02   -0.36183E-03  5289   0.259E-02    0.347E-01
RMM:   5    -0.231411882039E+04    0.16460E-02   -0.14016E-03  4609   0.184E-02    0.112E-01
RMM:   6    -0.231411874607E+04    0.74324E-04   -0.32792E-04  3184   0.794E-03    0.693E-02
RMM:   7    -0.231411869827E+04    0.47799E-04   -0.51815E-05  2832   0.478E-03    0.155E-02
RMM:   8    -0.231411869786E+04    0.41586E-06   -0.15180E-05  2732   0.257E-03
  11 F= -.23354215E+04 E0= -.23354215E+04  d E =-.122641E-03  mag=     3.9990
       N       E                     dE             d eps       ncg     rms          rms(c)
DAV:   1    -0.231409496761E+04    0.23731E-01   -0.70239E-01  4800   0.401E-01    0.452E-01
RMM:   2    -0.231409211374E+04    0.28539E-02   -0.14105E-02  4549   0.543E-02    0.261E-01
RMM:   3    -0.231409175052E+04    0.36322E-03   -0.23575E-03  3923   0.321E-02    0.262E-01
RMM:   4    -0.231409169051E+04    0.60013E-04   -0.17494E-03  4530   0.174E-02    0.239E-01
RMM:   5    -0.231409111341E+04    0.57710E-03   -0.57672E-04  4114   0.123E-02    0.560E-02
RMM:   6    -0.231409110429E+04    0.91169E-05   -0.16293E-04  3178   0.727E-03    0.487E-02
RMM:   7    -0.231409106944E+04    0.34850E-04   -0.33082E-05  2678   0.397E-03    0.849E-03
RMM:   8    -0.231409106874E+04    0.70239E-06   -0.66945E-06  2547   0.183E-03
  12 F= -.23353932E+04 E0= -.23353931E+04  d E =-.125037E-03  mag=     3.9990
       N       E                     dE             d eps       ncg     rms          rms(c)
DAV:   1    -0.231412614684E+04   -0.35077E-01   -0.12556E+00  4620   0.534E-01    0.454E-01
RMM:   2    -0.231412494822E+04    0.11986E-02   -0.11508E-02  4542   0.534E-02    0.304E-01
RMM:   3    -0.231412653690E+04   -0.15887E-02   -0.45444E-03  4466   0.335E-02    0.479E-01
RMM:   4    -0.231412422005E+04    0.23168E-02   -0.21373E-03  4896   0.213E-02    0.132E-01
RMM:   5    -0.231412418867E+04    0.31379E-04   -0.57236E-04  3943   0.115E-02    0.976E-02
RMM:   6    -0.231412406325E+04    0.12543E-03   -0.17671E-04  3297   0.788E-03    0.278E-02
RMM:   7    -0.231412405311E+04    0.10133E-04   -0.17201E-05  2812   0.318E-03    0.114E-02
RMM:   8    -0.231412405412E+04   -0.10115E-05   -0.88581E-06  2628   0.210E-03
  13 F= -.23354265E+04 E0= -.23354264E+04  d E =-.124125E-03  mag=     3.9990
       N       E                     dE             d eps       ncg     rms          rms(c)
DAV:   1    -0.231411721689E+04    0.68362E-02   -0.58906E-01  4530   0.371E-01    0.263E-01
RMM:   2    -0.231411698598E+04    0.23090E-03   -0.50736E-03  4546   0.372E-02    0.201E-01
RMM:   3    -0.231411744450E+04   -0.45852E-03   -0.19776E-03  4130   0.202E-02    0.280E-01
RMM:   4    -0.231411661411E+04    0.83040E-03   -0.69403E-04  4039   0.128E-02    0.814E-02
RMM:   5    -0.231411664933E+04   -0.35220E-04   -0.31548E-04  3311   0.870E-03    0.880E-02
RMM:   6    -0.231411654850E+04    0.10082E-03   -0.93818E-05  3100   0.607E-03    0.138E-02
RMM:   7    -0.231411654766E+04    0.83727E-06   -0.11240E-05  2641   0.237E-03
  14 F= -.23354176E+04 E0= -.23354176E+04  d E =-.147701E-03  mag=     3.9989
       N       E                     dE             d eps       ncg     rms          rms(c)
DAV:   1    -0.231410623971E+04    0.10309E-01   -0.10971E+00  4380   0.456E-01    0.249E-01
RMM:   2    -0.231410624838E+04   -0.86648E-05   -0.55854E-03  4369   0.385E-02    0.174E-01
RMM:   3    -0.231410674310E+04   -0.49473E-03   -0.18752E-03  4402   0.201E-02    0.265E-01
RMM:   4    -0.231410600321E+04    0.73990E-03   -0.71912E-04  3914   0.118E-02    0.897E-02
RMM:   5    -0.231410596192E+04    0.41285E-04   -0.25252E-04  3222   0.794E-03    0.601E-02
RMM:   6    -0.231410592106E+04    0.40858E-04   -0.41192E-05  2810   0.438E-03    0.142E-02
RMM:   7    -0.231410592385E+04   -0.27901E-05   -0.15803E-05  2641   0.237E-03
  15 F= -.23354093E+04 E0= -.23354093E+04  d E =-.104913E-03  mag=     3.9991
       N       E                     dE             d eps       ncg     rms          rms(c)
DAV:   1    -0.231410507899E+04    0.84208E-03   -0.54336E-01  4440   0.315E-01    0.151E-01
RMM:   2    -0.231410526450E+04   -0.18551E-03   -0.24810E-03  4054   0.264E-02    0.128E-01
RMM:   3    -0.231410529057E+04   -0.26071E-04   -0.69039E-04  3765   0.142E-02    0.134E-01
RMM:   4    -0.231410513588E+04    0.15469E-03   -0.24527E-04  3333   0.789E-03    0.736E-02
RMM:   5    -0.231410511086E+04    0.25019E-04   -0.12574E-04  2868   0.542E-03    0.479E-02
RMM:   6    -0.231410508560E+04    0.25254E-04   -0.26060E-05  2535   0.326E-03    0.673E-03
RMM:   7    -0.231410508570E+04   -0.10205E-06   -0.45025E-06  2261   0.156E-03
  16 F= -.23354091E+04 E0= -.23354090E+04  d E =-.127885E-03  mag=     3.9990
       N       E                     dE             d eps       ncg     rms          rms(c)
DAV:   1    -0.231411672349E+04   -0.11638E-01   -0.10724E+00  4380   0.455E-01    0.287E-01
RMM:   2    -0.231411662893E+04    0.94566E-04   -0.78307E-03  4949   0.443E-02    0.289E-01
RMM:   3    -0.231411639151E+04    0.23742E-03   -0.25711E-03  4680   0.239E-02    0.261E-01
RMM:   4    -0.231411565281E+04    0.73870E-03   -0.88610E-04  4214   0.138E-02    0.107E-01
RMM:   5    -0.231411561341E+04    0.39395E-04   -0.41696E-04  3701   0.935E-03    0.922E-02
RMM:   6    -0.231411551784E+04    0.95572E-04   -0.10507E-04  2869   0.582E-03    0.162E-02
RMM:   7    -0.231411551807E+04   -0.22982E-06   -0.15455E-05  2681   0.252E-03
  17 F= -.23354158E+04 E0= -.23354158E+04  d E =-.123044E-03  mag=     3.9990
       N       E                     dE             d eps       ncg     rms          rms(c)
DAV:   1    -0.231411560195E+04   -0.84114E-04   -0.55978E-01  4470   0.329E-01    0.198E-01
RMM:   2    -0.231411660722E+04   -0.10053E-02   -0.53557E-03  4918   0.397E-02    0.299E-01
RMM:   3    -0.231411547180E+04    0.11354E-02   -0.12724E-03  4423   0.194E-02    0.118E-01
RMM:   4    -0.231411559469E+04   -0.12289E-03   -0.62394E-04  3619   0.109E-02    0.155E-01
RMM:   5    -0.231411534997E+04    0.24472E-03   -0.31531E-04  3566   0.783E-03    0.335E-02
RMM:   6    -0.231411533499E+04    0.14987E-04   -0.27449E-05  2753   0.313E-03    0.933E-03
RMM:   7    -0.231411533478E+04    0.20843E-06   -0.80737E-06  2506   0.202E-03
  18 F= -.23354153E+04 E0= -.23354152E+04  d E =-.106655E-03  mag=     3.9991
       N       E                     dE             d eps       ncg     rms          rms(c)
DAV:   1    -0.231409965395E+04    0.15681E-01   -0.10791E+00  4740   0.487E-01    0.308E-01
RMM:   2    -0.231410174533E+04   -0.20914E-02   -0.13834E-02  5152   0.598E-02    0.398E-01
RMM:   3    -0.231409959835E+04    0.21470E-02   -0.27992E-03  5233   0.287E-02    0.177E-01
RMM:   4    -0.231409981153E+04   -0.21318E-03   -0.10628E-03  4276   0.133E-02    0.235E-01
RMM:   5    -0.231409924280E+04    0.56873E-03   -0.52121E-04  3536   0.988E-03    0.427E-02
RMM:   6    -0.231409922679E+04    0.16010E-04   -0.58062E-05  2963   0.428E-03    0.154E-02
RMM:   7    -0.231409922833E+04   -0.15431E-05   -0.14074E-05  2717   0.282E-03
  19 F= -.23354034E+04 E0= -.23354033E+04  d E =-.144650E-03  mag=     3.9989
