       N       E                     dE             d eps       ncg     rms          rms(c)
DAV:   1     0.126953256566E+05    0.12695E+05   -0.82206E+05  4408   0.144E+03
DAV:   2    -0.104235525443E+04   -0.13738E+05   -0.13171E+05  5272   0.330E+02
DAV:   3    -0.244714449454E+04   -0.14048E+04   -0.13919E+04  5296   0.111E+02
DAV:   4    -0.249175380069E+04   -0.44609E+02   -0.44392E+02  6576   0.295E+01
DAV:   5    -0.249260110736E+04   -0.84731E+00   -0.84581E+00  5488   0.326E+00    0.170E+02
RMM:   6    -0.145566895230E+04    0.10369E+04   -0.19101E+03  4344   0.386E+01    0.733E+01
RMM:   7    -0.164385173541E+04   -0.18818E+03   -0.28896E+02  4876   0.138E+01    0.496E+01
RMM:   8    -0.169600358053E+04   -0.52152E+02   -0.38723E+01  5318   0.647E+00    0.437E+01
RMM:   9    -0.176051489525E+04   -0.64511E+02   -0.58873E+01  4840   0.658E+00    0.352E+01
RMM:  10    -0.190681089467E+04   -0.14630E+03   -0.74216E+01  5008   0.834E+00    0.221E+01
RMM:  11    -0.200907066108E+04   -0.10226E+03   -0.42681E+01  4896   0.544E+00    0.220E+01
RMM:  12    -0.203638660562E+04   -0.27316E+02   -0.83169E+00  4891   0.247E+00    0.138E+01
RMM:  13    -0.217003041195E+04   -0.13364E+03   -0.97377E+01  4342   0.731E+00    0.111E+01
RMM:  14    -0.222445774199E+04   -0.54427E+02   -0.40149E+01  4366   0.450E+00    0.998E+00
RMM:  15    -0.226566733679E+04   -0.41210E+02   -0.33673E+01  4350   0.435E+00    0.116E+01
RMM:  16    -0.227981302791E+04   -0.14146E+02   -0.13797E+01  4799   0.303E+00    0.967E+00
RMM:  17    -0.228343256613E+04   -0.36195E+01   -0.39455E+00  4930   0.127E+00    0.292E+00
RMM:  18    -0.228468780499E+04   -0.12552E+01   -0.96213E-01  4824   0.701E-01    0.900E-01
RMM:  19    -0.228496117592E+04   -0.27337E+00   -0.27058E-01  4828   0.350E-01    0.133E+00
RMM:  20    -0.228497848318E+04   -0.17307E-01   -0.29884E-02  5488   0.110E-01    0.166E+00
RMM:  21    -0.228503643994E+04   -0.57957E-01   -0.63811E-02  4345   0.136E-01    0.158E+00
RMM:  22    -0.228504069037E+04   -0.42504E-02   -0.34968E-03  4908   0.428E-02    0.161E+00
RMM:  23    -0.228504240655E+04   -0.17162E-02   -0.90723E-03  4463   0.440E-02    0.179E+00
RMM:  24    -0.228503993949E+04    0.24671E-02   -0.22864E-03  4059   0.207E-02    0.182E+00
RMM:  25    -0.228507251790E+04   -0.32578E-01   -0.26993E-02  4392   0.655E-02    0.185E+00
RMM:  26    -0.228507035508E+04    0.21628E-02   -0.21707E-03  4593   0.250E-02    0.180E+00
RMM:  27    -0.228508730538E+04   -0.16950E-01   -0.32789E-02  4401   0.661E-02    0.169E+00
RMM:  28    -0.228507216334E+04    0.15142E-01   -0.18989E-02  4615   0.562E-02    0.133E+00
RMM:  29    -0.228499818079E+04    0.73983E-01   -0.10122E-01  4375   0.134E-01    0.670E-01
RMM:  30    -0.228491169578E+04    0.86485E-01   -0.45266E-02  4450   0.989E-02    0.661E-01
RMM:  31    -0.228467748013E+04    0.23422E+00   -0.98380E-02  4385   0.114E-01    0.905E-01
RMM:  32    -0.228448428650E+04    0.19319E+00   -0.54825E-02  4396   0.867E-02    0.100E+00
RMM:  33    -0.228430682159E+04    0.17746E+00   -0.41037E-02  4268   0.551E-02    0.107E+00
RMM:  34    -0.228448313035E+04   -0.17631E+00   -0.25390E-02  4104   0.387E-02    0.995E-01
RMM:  35    -0.228471442231E+04   -0.23129E+00   -0.59107E-02  4175   0.591E-02    0.847E-01
RMM:  36    -0.228498407159E+04   -0.26965E+00   -0.12437E-01  4401   0.945E-02    0.601E-01
RMM:  37    -0.228507146130E+04   -0.87390E-01   -0.35813E-02  4300   0.597E-02    0.476E-01
RMM:  38    -0.228514403853E+04   -0.72577E-01   -0.47650E-02  4345   0.665E-02    0.390E-01
RMM:  39    -0.228516052519E+04   -0.16487E-01   -0.15187E-02  4132   0.431E-02    0.543E-01
RMM:  40    -0.228516985027E+04   -0.93251E-02   -0.52119E-03  4100   0.210E-02    0.732E-01
RMM:  41    -0.228515961143E+04    0.10239E-01   -0.28033E-03  3706   0.186E-02    0.466E-01
RMM:  42    -0.228520931422E+04   -0.49703E-01   -0.72495E-02  4224   0.532E-02    0.146E+00
RMM:  43    -0.228520770978E+04    0.16044E-02   -0.29235E-03  3703   0.218E-02    0.171E+00
RMM:  44    -0.228520828846E+04   -0.57868E-03   -0.22140E-04  2905   0.526E-03    0.172E+00
RMM:  45    -0.228520885705E+04   -0.56859E-03   -0.11103E-04  2795   0.427E-03    0.174E+00
RMM:  46    -0.228520001352E+04    0.88435E-02   -0.45696E-03  3075   0.107E-02    0.151E+00
RMM:  47    -0.228518885400E+04    0.11160E-01   -0.48331E-03  3177   0.127E-02    0.117E+00
RMM:  48    -0.228517520971E+04    0.13644E-01   -0.54738E-03  3469   0.156E-02    0.780E-01
RMM:  49    -0.228515759322E+04    0.17616E-01   -0.56014E-03  3715   0.236E-02    0.443E-01
RMM:  50    -0.228516248222E+04   -0.48890E-02   -0.82671E-04  3102   0.994E-03    0.515E-01
RMM:  51    -0.228515353809E+04    0.89441E-02   -0.14482E-03  3432   0.139E-02    0.447E-01
RMM:  52    -0.228515316795E+04    0.37014E-03   -0.25781E-04  2910   0.681E-03    0.462E-01
RMM:  53    -0.228514970783E+04    0.34601E-02   -0.64387E-04  3019   0.871E-03    0.459E-01
RMM:  54    -0.228515031138E+04   -0.60355E-03   -0.13326E-04  2696   0.484E-03    0.450E-01
RMM:  55    -0.228515270925E+04   -0.23979E-02   -0.64443E-04  3028   0.848E-03    0.450E-01
RMM:  56    -0.228514770364E+04    0.50056E-02   -0.15612E-03  3405   0.139E-02    0.448E-01
RMM:  57    -0.228514771865E+04   -0.15011E-04   -0.11084E-04  2653   0.387E-03    0.450E-01
RMM:  58    -0.228514686879E+04    0.84986E-03   -0.42694E-05  2533   0.261E-03    0.439E-01
RMM:  59    -0.228514300265E+04    0.38661E-02   -0.49151E-04  3019   0.754E-03    0.410E-01
RMM:  60    -0.228514290246E+04    0.10019E-03   -0.33467E-05  2578   0.267E-03    0.407E-01
RMM:  61    -0.228514270354E+04    0.19891E-03   -0.45780E-05  2689   0.230E-03    0.408E-01
RMM:  62    -0.228514283473E+04   -0.13119E-03   -0.40181E-06  2229   0.149E-03    0.406E-01
RMM:  63    -0.228514230558E+04    0.52915E-03   -0.15089E-05  2093   0.161E-03    0.409E-01
RMM:  64    -0.228514500627E+04   -0.27007E-02   -0.99008E-05  2394   0.341E-03    0.424E-01
RMM:  65    -0.228514633258E+04   -0.13263E-02   -0.34097E-04  2894   0.580E-03    0.420E-01
RMM:  66    -0.228514503243E+04    0.13002E-02   -0.16291E-03  3272   0.125E-02    0.427E-01
RMM:  67    -0.228513732291E+04    0.77095E-02   -0.18549E-03  3314   0.135E-02    0.420E-01
RMM:  68    -0.228513168394E+04    0.56390E-02   -0.84853E-04  3040   0.100E-02    0.418E-01
RMM:  69    -0.228512924351E+04    0.24404E-02   -0.33531E-04  2866   0.653E-03    0.423E-01
RMM:  70    -0.228512583467E+04    0.34088E-02   -0.38586E-04  2960   0.719E-03    0.429E-01
RMM:  71    -0.228512915698E+04   -0.33223E-02   -0.63528E-04  2909   0.833E-03    0.419E-01
RMM:  72    -0.228512898977E+04    0.16721E-03   -0.24165E-05  2475   0.249E-03    0.419E-01
RMM:  73    -0.228512754418E+04    0.14456E-02   -0.27052E-05  2137   0.204E-03    0.418E-01
RMM:  74    -0.228512846023E+04   -0.91605E-03   -0.16934E-05  1930   0.159E-03    0.417E-01
RMM:  75    -0.228512859047E+04   -0.13024E-03   -0.13925E-05  1799   0.155E-03    0.412E-01
RMM:  76    -0.228513000838E+04   -0.14179E-02   -0.12883E-04  2735   0.381E-03    0.423E-01
RMM:  77    -0.228512971509E+04    0.29329E-03   -0.62580E-06  2055   0.149E-03    0.422E-01
RMM:  78    -0.228512950079E+04    0.21429E-03   -0.24864E-05  1941   0.203E-03    0.428E-01
RMM:  79    -0.228512687659E+04    0.26242E-02   -0.12821E-04  2797   0.419E-03    0.441E-01
RMM:  80    -0.228512448057E+04    0.23960E-02   -0.13646E-04  2785   0.415E-03    0.457E-01
RMM:  81    -0.228512816015E+04   -0.36796E-02   -0.20778E-03  3512   0.152E-02    0.468E-01
RMM:  82    -0.228512795327E+04    0.20688E-03   -0.10415E-04  2725   0.415E-03    0.463E-01
RMM:  83    -0.228512780961E+04    0.14367E-03   -0.36829E-05  2519   0.199E-03    0.465E-01
RMM:  84    -0.228512690306E+04    0.90655E-03   -0.13761E-05  2310   0.178E-03    0.466E-01
RMM:  85    -0.228512679144E+04    0.11162E-03   -0.16834E-06  1708   0.971E-04    0.465E-01
RMM:  86    -0.228513551795E+04   -0.87265E-02   -0.12236E-03  3197   0.999E-03    0.463E-01
RMM:  87    -0.228513253429E+04    0.29837E-02   -0.21994E-04  2876   0.578E-03    0.442E-01
RMM:  88    -0.228512524428E+04    0.72900E-02   -0.12774E-03  3327   0.120E-02    0.419E-01
RMM:  89    -0.228511740545E+04    0.78388E-02   -0.16057E-03  3416   0.137E-02    0.411E-01
RMM:  90    -0.228511194789E+04    0.54576E-02   -0.69025E-04  3071   0.945E-03    0.412E-01
RMM:  91    -0.228510416570E+04    0.77822E-02   -0.63400E-02  4298   0.859E-02    0.762E-01
RMM:  92    -0.228510445215E+04   -0.28645E-03   -0.33843E-03  3690   0.273E-02    0.756E-01
RMM:  93    -0.228510594203E+04   -0.14899E-02   -0.49392E-04  3280   0.658E-03    0.721E-01
RMM:  94    -0.228511370022E+04   -0.77582E-02   -0.25163E-03  3706   0.190E-02    0.556E-01
RMM:  95    -0.228511378022E+04   -0.79997E-04   -0.14496E-03  3315   0.155E-02    0.527E-01
RMM:  96    -0.228512894366E+04   -0.15163E-01   -0.24056E-03  3489   0.192E-02    0.520E-01
RMM:  97    -0.228513166912E+04   -0.27255E-02   -0.30339E-04  2940   0.700E-03    0.528E-01
RMM:  98    -0.228512691839E+04    0.47507E-02   -0.19103E-04  2810   0.568E-03    0.544E-01
RMM:  99    -0.228513826841E+04   -0.11350E-01   -0.11752E-03  3181   0.113E-02    0.496E-01
RMM: 100    -0.228517157340E+04   -0.33305E-01   -0.20159E-02  4098   0.444E-02    0.838E-01
RMM: 101    -0.228517827719E+04   -0.67038E-02   -0.44403E-03  3570   0.217E-02    0.120E+00
RMM: 102    -0.228517721968E+04    0.10575E-02   -0.12979E-03  3132   0.110E-02    0.115E+00
RMM: 103    -0.228516266709E+04    0.14553E-01   -0.90402E-03  3639   0.267E-02    0.759E-01
RMM: 104    -0.228511090058E+04    0.51767E-01   -0.28324E-02  4215   0.549E-02    0.491E-01
RMM: 105    -0.228510447178E+04    0.64288E-02   -0.24600E-03  3623   0.206E-02    0.500E-01
RMM: 106    -0.228509153622E+04    0.12936E-01   -0.77680E-03  3886   0.278E-02    0.520E-01
RMM: 107    -0.228509054551E+04    0.99070E-03   -0.39308E-04  2992   0.977E-03    0.525E-01
RMM: 108    -0.228508982494E+04    0.72058E-03   -0.52480E-05  2800   0.316E-03    0.524E-01
RMM: 109    -0.228508913315E+04    0.69178E-03   -0.22122E-05  2577   0.282E-03    0.525E-01
RMM: 110    -0.228509295592E+04   -0.38228E-02   -0.19067E-04  2652   0.481E-03    0.523E-01
RMM: 111    -0.228510329586E+04   -0.10340E-01   -0.11862E-03  3183   0.113E-02    0.522E-01
RMM: 112    -0.228509892863E+04    0.43672E-02   -0.68770E-04  2992   0.870E-03    0.526E-01
RMM: 113    -0.228510013202E+04   -0.12034E-02   -0.37546E-04  2921   0.703E-03    0.530E-01
RMM: 114    -0.228510025391E+04   -0.12189E-03   -0.29658E-05  2534   0.308E-03    0.530E-01
RMM: 115    -0.228510047211E+04   -0.21821E-03   -0.53185E-06  2250   0.136E-03    0.530E-01
RMM: 116    -0.228509999058E+04    0.48153E-03   -0.41155E-04  2885   0.687E-03    0.556E-01
RMM: 117    -0.228510042428E+04   -0.43369E-03   -0.43560E-05  2464   0.257E-03    0.556E-01
RMM: 118    -0.228510155939E+04   -0.11351E-02   -0.88522E-05  2721   0.387E-03    0.545E-01
RMM: 119    -0.228509992429E+04    0.16351E-02   -0.80304E-05  2705   0.339E-03    0.537E-01
RMM: 120    -0.228509946942E+04    0.45486E-03   -0.93065E-05  2730   0.365E-03    0.529E-01
RMM: 121    -0.228509665583E+04    0.28136E-02   -0.11280E-03  3169   0.119E-02    0.577E-01
RMM: 122    -0.228509636454E+04    0.29129E-03   -0.24149E-04  2809   0.585E-03    0.588E-01
RMM: 123    -0.228509627566E+04    0.88880E-04   -0.23003E-05  2468   0.267E-03    0.591E-01
RMM: 124    -0.228510045306E+04   -0.41774E-02   -0.50592E-04  2925   0.730E-03    0.580E-01
RMM: 125    -0.228510478936E+04   -0.43363E-02   -0.55120E-04  2969   0.739E-03    0.583E-01
RMM: 126    -0.228511907690E+04   -0.14288E-01   -0.27663E-03  3603   0.182E-02    0.570E-01
RMM: 127    -0.228512103883E+04   -0.19619E-02   -0.54369E-04  3085   0.970E-03    0.571E-01
RMM: 128    -0.228513543571E+04   -0.14397E-01   -0.20310E-03  3390   0.156E-02    0.606E-01
RMM: 129    -0.228514393027E+04   -0.84946E-02   -0.13217E-03  3174   0.139E-02    0.646E-01
RMM: 130    -0.228514973247E+04   -0.58022E-02   -0.78132E-04  3173   0.108E-02    0.676E-01
RMM: 131    -0.228515372235E+04   -0.39899E-02   -0.31198E-03  3585   0.168E-02    0.730E-01
RMM: 132    -0.228515039778E+04    0.33246E-02   -0.42609E-04  2899   0.718E-03    0.673E-01
RMM: 133    -0.228515033354E+04    0.64235E-04   -0.54837E-05  2496   0.312E-03    0.661E-01
RMM: 134    -0.228514923910E+04    0.10944E-02   -0.53106E-04  2835   0.657E-03    0.615E-01
RMM: 135    -0.228514067383E+04    0.85653E-02   -0.65715E-03  3802   0.239E-02    0.501E-01
RMM: 136    -0.228512475000E+04    0.15924E-01   -0.28961E-03  3524   0.204E-02    0.500E-01
RMM: 137    -0.228511979224E+04    0.49578E-02   -0.15050E-03  3206   0.126E-02    0.519E-01
RMM: 138    -0.228511232089E+04    0.74713E-02   -0.15161E-03  3231   0.126E-02    0.534E-01
RMM: 139    -0.228511343240E+04   -0.11115E-02   -0.11967E-04  2694   0.476E-03    0.535E-01
RMM: 140    -0.228511329541E+04    0.13699E-03   -0.11888E-04  2699   0.423E-03    0.550E-01
RMM: 141    -0.228511010298E+04    0.31924E-02   -0.62804E-04  2920   0.868E-03    0.504E-01
RMM: 142    -0.228511075192E+04   -0.64893E-03   -0.73357E-05  2504   0.347E-03    0.501E-01
RMM: 143    -0.228511036100E+04    0.39091E-03   -0.71939E-05  2565   0.321E-03    0.506E-01
RMM: 144    -0.228511088590E+04   -0.52490E-03   -0.61875E-04  2995   0.800E-03    0.498E-01
RMM: 145    -0.228511085149E+04    0.34413E-04   -0.51219E-05  2574   0.341E-03    0.497E-01
RMM: 146    -0.228513247948E+04   -0.21628E-01   -0.54449E-02  4189   0.682E-02    0.532E-01
RMM: 147    -0.228513455437E+04   -0.20749E-02   -0.22276E-03  3504   0.203E-02    0.718E-01
RMM: 148    -0.228514370130E+04   -0.91469E-02   -0.31571E-03  3608   0.197E-02    0.793E-01
RMM: 149    -0.228515704542E+04   -0.13344E-01   -0.58811E-03  3415   0.204E-02    0.821E-01
RMM: 150    -0.228515853959E+04   -0.14942E-02   -0.46256E-04  2973   0.845E-03    0.836E-01
RMM: 151    -0.228515028267E+04    0.82569E-02   -0.28795E-03  3611   0.188E-02    0.767E-01
RMM: 152    -0.228514542457E+04    0.48581E-02   -0.75451E-03  3572   0.267E-02    0.643E-01
RMM: 153    -0.228514514881E+04    0.27576E-03   -0.24933E-03  3282   0.169E-02    0.651E-01
RMM: 154    -0.228513818304E+04    0.69658E-02   -0.72751E-03  3739   0.256E-02    0.680E-01
RMM: 155    -0.228513640394E+04    0.17791E-02   -0.51268E-04  2899   0.781E-03    0.702E-01
RMM: 156    -0.228514486020E+04   -0.84563E-02   -0.17054E-03  3322   0.138E-02    0.783E-01
RMM: 157    -0.228514487519E+04   -0.14988E-04   -0.62958E-05  2705   0.452E-03    0.787E-01
RMM: 158    -0.228514302108E+04    0.18541E-02   -0.65972E-04  3129   0.852E-03    0.780E-01
RMM: 159    -0.228514288184E+04    0.13924E-03   -0.24579E-04  2876   0.641E-03    0.762E-01
RMM: 160    -0.228514154547E+04    0.13364E-02   -0.97607E-04  3129   0.104E-02    0.744E-01
RMM: 161    -0.228517446549E+04   -0.32920E-01   -0.31923E-02  4466   0.462E-02    0.869E-01
RMM: 162    -0.228516642698E+04    0.80385E-02   -0.23974E-03  3343   0.177E-02    0.781E-01
RMM: 163    -0.228512290367E+04    0.43523E-01   -0.21481E-02  4127   0.470E-02    0.466E-01
RMM: 164    -0.228510506915E+04    0.17835E-01   -0.45214E-03  3761   0.260E-02    0.505E-01
RMM: 165    -0.228507879003E+04    0.26279E-01   -0.52489E-03  4007   0.254E-02    0.543E-01
RMM: 166    -0.228512589722E+04   -0.47107E-01   -0.12883E-02  4119   0.362E-02    0.488E-01
RMM: 167    -0.228513145914E+04   -0.55619E-02   -0.12876E-03  3241   0.122E-02    0.508E-01
RMM: 168    -0.228515703669E+04   -0.25578E-01   -0.12196E-02  4252   0.348E-02    0.584E-01
RMM: 169    -0.228517109235E+04   -0.14056E-01   -0.92845E-03  3903   0.286E-02    0.777E-01
RMM: 170    -0.228516562248E+04    0.54699E-02   -0.12147E-03  3144   0.122E-02    0.686E-01
RMM: 171    -0.228514381249E+04    0.21810E-01   -0.10503E-02  4109   0.339E-02    0.516E-01
RMM: 172    -0.228513569585E+04    0.81166E-02   -0.58137E-03  3712   0.247E-02    0.563E-01
RMM: 173    -0.228513180380E+04    0.38920E-02   -0.13745E-03  3113   0.110E-02    0.573E-01
RMM: 174    -0.228513379779E+04   -0.19940E-02   -0.10670E-04  2756   0.435E-03    0.582E-01
RMM: 175    -0.228513823351E+04   -0.44357E-02   -0.36474E-04  2761   0.609E-03    0.586E-01
RMM: 176    -0.228512690412E+04    0.11329E-01   -0.18841E-03  3239   0.148E-02    0.557E-01
RMM: 177    -0.228511807263E+04    0.88315E-02   -0.94739E-04  3131   0.113E-02    0.554E-01
RMM: 178    -0.228511658411E+04    0.14885E-02   -0.14161E-04  2747   0.526E-03    0.552E-01
RMM: 179    -0.228512636649E+04   -0.97824E-02   -0.12649E-03  3160   0.116E-02    0.543E-01
RMM: 180    -0.228513738560E+04   -0.11019E-01   -0.27332E-03  3580   0.160E-02    0.556E-01
RMM: 181    -0.228511054260E+04    0.26843E-01   -0.63029E-03  3982   0.264E-02    0.524E-01
RMM: 182    -0.228510364146E+04    0.69011E-02   -0.11377E-03  3124   0.116E-02    0.541E-01
RMM: 183    -0.228509217194E+04    0.11470E-01   -0.15213E-03  3306   0.133E-02    0.555E-01
RMM: 184    -0.228509175894E+04    0.41299E-03   -0.14266E-04  2770   0.478E-03    0.558E-01
RMM: 185    -0.228509319204E+04   -0.14331E-02   -0.37080E-05  2421   0.257E-03    0.552E-01
RMM: 186    -0.228504317293E+04    0.50019E-01   -0.17002E-02  4313   0.414E-02    0.657E-01
RMM: 187    -0.228504506159E+04   -0.18887E-02   -0.12599E-03  3135   0.104E-02    0.670E-01
RMM: 188    -0.228504225724E+04    0.28043E-02   -0.16588E-04  2884   0.509E-03    0.677E-01
RMM: 189    -0.228503710438E+04    0.51529E-02   -0.18059E-04  2842   0.528E-03    0.686E-01
RMM: 190    -0.228503932051E+04   -0.22161E-02   -0.32186E-05  2474   0.282E-03    0.683E-01
RMM: 191    -0.228505468626E+04   -0.15366E-01   -0.17697E-03  3263   0.132E-02    0.681E-01
RMM: 192    -0.228505351513E+04    0.11711E-02   -0.56892E-05  2593   0.368E-03    0.684E-01
RMM: 193    -0.228505949100E+04   -0.59759E-02   -0.27730E-04  2758   0.528E-03    0.666E-01
RMM: 194    -0.228506170346E+04   -0.22125E-02   -0.66757E-05  2511   0.301E-03    0.659E-01
RMM: 195    -0.228506604706E+04   -0.43436E-02   -0.19612E-04  2855   0.511E-03    0.648E-01
RMM: 196    -0.228505757252E+04    0.84745E-02   -0.12533E-03  3142   0.117E-02    0.701E-01
RMM: 197    -0.228506471786E+04   -0.71453E-02   -0.26821E-04  2813   0.665E-03    0.677E-01
RMM: 198    -0.228506991566E+04   -0.51978E-02   -0.38593E-04  2938   0.676E-03    0.657E-01
RMM: 199    -0.228507002628E+04   -0.11063E-03   -0.50458E-05  2471   0.292E-03    0.656E-01
RMM: 200    -0.228508763854E+04   -0.17612E-01   -0.24375E-03  3429   0.162E-02    0.612E-01
RMM: 201    -0.228510548186E+04   -0.17843E-01   -0.34547E-03  3600   0.194E-02    0.570E-01
RMM: 202    -0.228510749202E+04   -0.20102E-02   -0.55475E-04  2962   0.792E-03    0.588E-01
RMM: 203    -0.228509684361E+04    0.10648E-01   -0.14320E-03  3177   0.126E-02    0.610E-01
RMM: 204    -0.228508373179E+04    0.13112E-01   -0.20610E-03  3429   0.154E-02    0.639E-01
RMM: 205    -0.228508416818E+04   -0.43638E-03   -0.12890E-04  2626   0.422E-03    0.640E-01
RMM: 206    -0.228504662126E+04    0.37547E-01   -0.83480E-03  3981   0.289E-02    0.688E-01
RMM: 207    -0.228506363421E+04   -0.17013E-01   -0.12073E-03  3181   0.114E-02    0.668E-01
RMM: 208    -0.228510431030E+04   -0.40676E-01   -0.14321E-02  4226   0.371E-02    0.589E-01
RMM: 209    -0.228512068991E+04   -0.16380E-01   -0.57783E-03  3776   0.237E-02    0.582E-01
RMM: 210    -0.228512129738E+04   -0.60747E-03   -0.59820E-04  2967   0.790E-03    0.590E-01
RMM: 211    -0.228520385896E+04   -0.82562E-01   -0.71564E-01  4710   0.224E-01    0.159E+00
RMM: 212    -0.228521112216E+04   -0.72632E-02   -0.68197E-02  4752   0.709E-02    0.176E+00
RMM: 213    -0.228520899376E+04    0.21284E-02   -0.64058E-02  4605   0.703E-02    0.141E+00
RMM: 214    -0.228520170013E+04    0.72936E-02   -0.61868E-03  3704   0.215E-02    0.123E+00
RMM: 215    -0.228518930689E+04    0.12393E-01   -0.19236E-02  4448   0.364E-02    0.950E-01
RMM: 216    -0.228518948706E+04   -0.18016E-03   -0.35468E-03  4245   0.213E-02    0.952E-01
RMM: 217    -0.228518531928E+04    0.41678E-02   -0.11995E-03  3301   0.121E-02    0.907E-01
RMM: 218    -0.228517962621E+04    0.56931E-02   -0.16381E-03  3432   0.117E-02    0.805E-01
RMM: 219    -0.228517751453E+04    0.21117E-02   -0.78094E-04  3110   0.956E-03    0.788E-01
RMM: 220    -0.228517900614E+04   -0.14916E-02   -0.16864E-04  2714   0.571E-03    0.823E-01
RMM: 221    -0.228517219880E+04    0.68073E-02   -0.25787E-03  3784   0.146E-02    0.744E-01
RMM: 222    -0.228517211353E+04    0.85266E-04   -0.12715E-03  3260   0.102E-02    0.729E-01
RMM: 223    -0.228517126003E+04    0.85350E-03   -0.15184E-04  2783   0.507E-03    0.725E-01
RMM: 224    -0.228517198857E+04   -0.72854E-03   -0.18292E-04  2723   0.493E-03    0.747E-01
RMM: 225    -0.228517194241E+04    0.46166E-04   -0.56938E-06  2483   0.232E-03    0.742E-01
RMM: 226    -0.228517248823E+04   -0.54583E-03   -0.10743E-04  2653   0.362E-03    0.723E-01
RMM: 227    -0.228517219624E+04    0.29199E-03   -0.45570E-05  2640   0.273E-03    0.730E-01
RMM: 228    -0.228517458637E+04   -0.23901E-02   -0.19310E-04  2765   0.432E-03    0.751E-01
RMM: 229    -0.228517710096E+04   -0.25146E-02   -0.10070E-03  3209   0.920E-03    0.812E-01
RMM: 230    -0.228517993929E+04   -0.28383E-02   -0.13923E-03  3462   0.103E-02    0.884E-01
RMM: 231    -0.228517831571E+04    0.16236E-02   -0.15565E-04  2727   0.528E-03    0.840E-01
RMM: 232    -0.228517788102E+04    0.43468E-03   -0.12820E-04  2625   0.399E-03    0.819E-01
RMM: 233    -0.228517722489E+04    0.65613E-03   -0.23987E-04  2766   0.467E-03    0.792E-01
RMM: 234    -0.228517661051E+04    0.61438E-03   -0.57660E-04  2903   0.690E-03    0.757E-01
RMM: 235    -0.228517614541E+04    0.46510E-03   -0.41904E-04  2782   0.610E-03    0.737E-01
RMM: 236    -0.228517459387E+04    0.15515E-02   -0.29324E-02  4619   0.483E-02    0.822E-01
RMM: 237    -0.228517440214E+04    0.19174E-03   -0.13766E-03  3855   0.168E-02    0.688E-01
RMM: 238    -0.228517620546E+04   -0.18033E-02   -0.31351E-04  2930   0.669E-03    0.701E-01
RMM: 239    -0.228517549501E+04    0.71044E-03   -0.79896E-05  2662   0.351E-03    0.683E-01
RMM: 240    -0.228517470103E+04    0.79398E-03   -0.19156E-04  2710   0.438E-03    0.689E-01
RMM: 241    -0.228517727477E+04   -0.25737E-02   -0.93734E-04  3158   0.903E-03    0.694E-01
RMM: 242    -0.228517379631E+04    0.34785E-02   -0.56571E-04  2971   0.768E-03    0.667E-01
RMM: 243    -0.228516973758E+04    0.40587E-02   -0.56110E-04  2983   0.727E-03    0.629E-01
RMM: 244    -0.228516597854E+04    0.37590E-02   -0.64238E-04  3054   0.922E-03    0.592E-01
RMM: 245    -0.228516473214E+04    0.12464E-02   -0.26337E-04  2840   0.679E-03    0.586E-01
RMM: 246    -0.228516690788E+04   -0.21757E-02   -0.12639E-03  3096   0.120E-02    0.572E-01
RMM: 247    -0.228516784700E+04   -0.93912E-03   -0.10394E-04  2579   0.417E-03    0.574E-01
RMM: 248    -0.228516870546E+04   -0.85846E-03   -0.39905E-05  2548   0.276E-03    0.577E-01
RMM: 249    -0.228517007496E+04   -0.13695E-02   -0.10859E-04  2611   0.359E-03    0.592E-01
RMM: 250    -0.228517159442E+04   -0.15195E-02   -0.90602E-05  2684   0.324E-03    0.602E-01
RMM: 251    -0.228516184407E+04    0.97503E-02   -0.73112E-03  4158   0.245E-02    0.576E-01
RMM: 252    -0.228516223795E+04   -0.39388E-03   -0.78805E-04  2841   0.761E-03    0.585E-01
RMM: 253    -0.228516231005E+04   -0.72095E-04   -0.56463E-05  2678   0.284E-03    0.586E-01
RMM: 254    -0.228516199047E+04    0.31957E-03   -0.14132E-05  2430   0.216E-03    0.583E-01
RMM: 255    -0.228516204321E+04   -0.52736E-04   -0.31343E-06  2176   0.143E-03    0.582E-01
RMM: 256    -0.228515873455E+04    0.33087E-02   -0.36276E-02  4111   0.550E-02    0.558E-01
RMM: 257    -0.228513323874E+04    0.25496E-01   -0.12943E-02  4282   0.410E-02    0.536E-01
RMM: 258    -0.228511311771E+04    0.20121E-01   -0.80444E-03  4237   0.301E-02    0.566E-01
RMM: 259    -0.228511148282E+04    0.16349E-02   -0.12201E-03  3146   0.119E-02    0.562E-01
RMM: 260    -0.228512086051E+04   -0.93777E-02   -0.16731E-03  3465   0.138E-02    0.511E-01
RMM: 261    -0.228512993729E+04   -0.90768E-02   -0.36299E-03  3777   0.210E-02    0.467E-01
RMM: 262    -0.228511141240E+04    0.18525E-01   -0.48062E-03  3763   0.224E-02    0.484E-01
RMM: 263    -0.228510666568E+04    0.47467E-02   -0.80850E-04  3058   0.961E-03    0.494E-01
RMM: 264    -0.228512504576E+04   -0.18380E-01   -0.33306E-03  3368   0.183E-02    0.482E-01
RMM: 265    -0.228515049995E+04   -0.25454E-01   -0.10485E-02  3990   0.326E-02    0.533E-01
RMM: 266    -0.228515778451E+04   -0.72846E-02   -0.95206E-03  3931   0.298E-02    0.662E-01
RMM: 267    -0.228515139865E+04    0.63859E-02   -0.38457E-03  3672   0.210E-02    0.536E-01
RMM: 268    -0.228515305551E+04   -0.16569E-02   -0.74210E-03  3692   0.237E-02    0.480E-01
RMM: 269    -0.228509129047E+04    0.61765E-01   -0.45937E-02  4430   0.683E-02    0.525E-01
RMM: 270    -0.228509781190E+04   -0.65214E-02   -0.17272E-03  3419   0.154E-02    0.519E-01
RMM: 271    -0.228509998144E+04   -0.21695E-02   -0.52691E-04  3089   0.776E-03    0.515E-01
RMM: 272    -0.228507652569E+04    0.23456E-01   -0.45832E-03  3705   0.216E-02    0.572E-01
RMM: 273    -0.228508935003E+04   -0.12824E-01   -0.12101E-03  3185   0.120E-02    0.540E-01
RMM: 274    -0.228509067177E+04   -0.13217E-02   -0.20772E-04  2833   0.596E-03    0.543E-01
RMM: 275    -0.228508750778E+04    0.31640E-02   -0.84051E-05  2590   0.394E-03    0.546E-01
RMM: 276    -0.228506433229E+04    0.23175E-01   -0.55088E-03  3780   0.231E-02    0.636E-01
RMM: 277    -0.228508635954E+04   -0.22027E-01   -0.28092E-03  3597   0.179E-02    0.575E-01
RMM: 278    -0.228510096431E+04   -0.14605E-01   -0.28206E-03  3409   0.183E-02    0.557E-01
RMM: 279    -0.228510175921E+04   -0.79490E-03   -0.21692E-04  2797   0.617E-03    0.561E-01
RMM: 280    -0.228510979430E+04   -0.80351E-02   -0.52339E-04  3093   0.809E-03    0.538E-01
RMM: 281    -0.228509391774E+04    0.15877E-01   -0.19611E-03  3334   0.155E-02    0.573E-01
RMM: 282    -0.228510306460E+04   -0.91469E-02   -0.48224E-04  3020   0.782E-03    0.548E-01
RMM: 283    -0.228510310014E+04   -0.35540E-04   -0.84027E-06  2446   0.212E-03    0.548E-01
RMM: 284    -0.228510077661E+04    0.23235E-02   -0.25418E-04  2884   0.590E-03    0.554E-01
RMM: 285    -0.228510654882E+04   -0.57722E-02   -0.29201E-04  2986   0.675E-03    0.543E-01
RMM: 286    -0.228512356726E+04   -0.17018E-01   -0.44813E-03  3804   0.231E-02    0.514E-01
RMM: 287    -0.228513791956E+04   -0.14352E-01   -0.38419E-03  3676   0.193E-02    0.515E-01
RMM: 288    -0.228514945131E+04   -0.11532E-01   -0.45924E-03  4045   0.232E-02    0.531E-01
RMM: 289    -0.228516747676E+04   -0.18025E-01   -0.11084E-02  4379   0.345E-02    0.659E-01
RMM: 290    -0.228516811398E+04   -0.63722E-03   -0.14851E-03  3119   0.127E-02    0.671E-01
RMM: 291    -0.228517031472E+04   -0.22007E-02   -0.52962E-04  3384   0.763E-03    0.701E-01
RMM: 292    -0.228516915179E+04    0.11629E-02   -0.24691E-04  2841   0.699E-03    0.664E-01
RMM: 293    -0.228517063119E+04   -0.14794E-02   -0.53816E-05  2584   0.322E-03    0.681E-01
RMM: 294    -0.228517003623E+04    0.59496E-03   -0.11726E-05  2207   0.162E-03    0.674E-01
RMM: 295    -0.228516791847E+04    0.21178E-02   -0.46780E-04  3220   0.864E-03    0.631E-01
RMM: 296    -0.228516730334E+04    0.61513E-03   -0.20523E-03  3950   0.139E-02    0.667E-01
RMM: 297    -0.228515755367E+04    0.97497E-02   -0.33735E-03  4100   0.210E-02    0.584E-01
RMM: 298    -0.228516079799E+04   -0.32443E-02   -0.38494E-04  2986   0.811E-03    0.592E-01
RMM: 299    -0.228515686109E+04    0.39369E-02   -0.69573E-04  3177   0.946E-03    0.569E-01
RMM: 300    -0.228514801589E+04    0.88452E-02   -0.22653E-03  3552   0.165E-02    0.530E-01
RMM: 301    -0.228514550441E+04    0.25115E-02   -0.54134E-04  3036   0.934E-03    0.537E-01
RMM: 302    -0.228514566660E+04   -0.16219E-03   -0.50483E-05  2671   0.361E-03    0.535E-01
RMM: 303    -0.228514540293E+04    0.26367E-03   -0.65477E-06  2417   0.179E-03    0.535E-01
RMM: 304    -0.228514537822E+04    0.24708E-04   -0.10404E-06  2282   0.126E-03    0.535E-01
RMM: 305    -0.228514547327E+04   -0.95048E-04   -0.48299E-07  1830   0.807E-04    0.535E-01
RMM: 306    -0.228515744096E+04   -0.11968E-01   -0.18249E-03  3299   0.141E-02    0.562E-01
RMM: 307    -0.228515443582E+04    0.30051E-02   -0.20723E-04  2780   0.581E-03    0.553E-01
RMM: 308    -0.228515766612E+04   -0.32303E-02   -0.25995E-04  2915   0.588E-03    0.557E-01
RMM: 309    -0.228516164513E+04   -0.39790E-02   -0.50907E-04  3031   0.810E-03    0.575E-01
RMM: 310    -0.228516220129E+04   -0.55616E-03   -0.14435E-04  2774   0.480E-03    0.584E-01
RMM: 311    -0.228513679907E+04    0.25402E-01   -0.23716E-02  4117   0.456E-02    0.622E-01
RMM: 312    -0.228513665273E+04    0.14634E-03   -0.66649E-04  3075   0.111E-02    0.591E-01
RMM: 313    -0.228511691880E+04    0.19734E-01   -0.29846E-03  3608   0.188E-02    0.617E-01
RMM: 314    -0.228512851024E+04   -0.11591E-01   -0.79126E-04  3148   0.101E-02    0.601E-01
RMM: 315    -0.228513721781E+04   -0.87076E-02   -0.77847E-04  3160   0.106E-02    0.590E-01
RMM: 316    -0.228513432521E+04    0.28926E-02   -0.45194E-04  3082   0.820E-03    0.603E-01
RMM: 317    -0.228513128543E+04    0.30398E-02   -0.13475E-04  2736   0.531E-03    0.604E-01
RMM: 318    -0.228513985421E+04   -0.85688E-02   -0.61109E-04  3031   0.851E-03    0.581E-01
RMM: 319    -0.228514082413E+04   -0.96992E-03   -0.66863E-05  2640   0.380E-03    0.577E-01
RMM: 320    -0.228514589877E+04   -0.50746E-02   -0.66683E-04  3246   0.992E-03    0.552E-01
RMM: 321    -0.228515225976E+04   -0.63610E-02   -0.42998E-03  3936   0.216E-02    0.572E-01
RMM: 322    -0.228515328807E+04   -0.10283E-02   -0.27992E-04  2921   0.733E-03    0.567E-01
RMM: 323    -0.228514468292E+04    0.86051E-02   -0.10434E-03  3101   0.108E-02    0.588E-01
RMM: 324    -0.228514273318E+04    0.19497E-02   -0.16804E-04  2739   0.500E-03    0.584E-01
RMM: 325    -0.228514532151E+04   -0.25883E-02   -0.11636E-04  2671   0.407E-03    0.584E-01
RMM: 326    -0.228520455273E+04   -0.59231E-01   -0.69930E-02  4343   0.752E-02    0.125E+00
RMM: 327    -0.228520765790E+04   -0.31052E-02   -0.48328E-03  3742   0.243E-02    0.142E+00
RMM: 328    -0.228519572606E+04    0.11932E-01   -0.61381E-03  3412   0.186E-02    0.109E+00
RMM: 329    -0.228517592201E+04    0.19804E-01   -0.12930E-02  3549   0.253E-02    0.592E-01
RMM: 330    -0.228517020334E+04    0.57187E-02   -0.21164E-03  3158   0.131E-02    0.486E-01
RMM: 331    -0.228515090489E+04    0.19298E-01   -0.12622E-02  4123   0.362E-02    0.422E-01
RMM: 332    -0.228515233614E+04   -0.14312E-02   -0.86236E-04  3367   0.142E-02    0.440E-01
RMM: 333    -0.228516041133E+04   -0.80752E-02   -0.98761E-04  3144   0.104E-02    0.461E-01
RMM: 334    -0.228516594374E+04   -0.55324E-02   -0.11949E-03  3623   0.128E-02    0.490E-01
RMM: 335    -0.228516620420E+04   -0.26046E-03   -0.46558E-04  3022   0.938E-03    0.515E-01
RMM: 336    -0.228516146550E+04    0.47387E-02   -0.44665E-04  2973   0.787E-03    0.453E-01
RMM: 337    -0.228515992545E+04    0.15401E-02   -0.15391E-04  2845   0.526E-03    0.446E-01
RMM: 338    -0.228515949835E+04    0.42709E-03   -0.25263E-05  2622   0.294E-03    0.442E-01
RMM: 339    -0.228515959760E+04   -0.99245E-04   -0.70193E-06  2312   0.165E-03    0.449E-01
RMM: 340    -0.228515933863E+04    0.25897E-03   -0.13603E-05  2267   0.168E-03    0.453E-01
RMM: 341    -0.228516070675E+04   -0.13681E-02   -0.10840E-04  2756   0.394E-03    0.493E-01
RMM: 342    -0.228516219314E+04   -0.14864E-02   -0.16786E-04  2862   0.471E-03    0.512E-01
RMM: 343    -0.228516126435E+04    0.92879E-03   -0.78628E-05  2729   0.391E-03    0.513E-01
RMM: 344    -0.228515966726E+04    0.15971E-02   -0.13293E-04  2870   0.485E-03    0.511E-01
RMM: 345    -0.228515745123E+04    0.22160E-02   -0.14362E-04  2761   0.477E-03    0.495E-01
RMM: 346    -0.228515818238E+04   -0.73115E-03   -0.13479E-04  2897   0.526E-03    0.517E-01
RMM: 347    -0.228515555060E+04    0.26318E-02   -0.21827E-04  2907   0.612E-03    0.495E-01
RMM: 348    -0.228515490803E+04    0.64257E-03   -0.35571E-05  2527   0.278E-03    0.491E-01
RMM: 349    -0.228515437851E+04    0.52952E-03   -0.16699E-05  2323   0.198E-03    0.489E-01
RMM: 350    -0.228515186396E+04    0.25146E-02   -0.18949E-04  2831   0.475E-03    0.485E-01
RMM: 351    -0.228514716057E+04    0.47034E-02   -0.97524E-04  3249   0.106E-02    0.488E-01
RMM: 352    -0.228514590793E+04    0.12526E-02   -0.18912E-04  2786   0.504E-03    0.487E-01
RMM: 353    -0.228514366176E+04    0.22462E-02   -0.21892E-04  2831   0.518E-03    0.474E-01
RMM: 354    -0.228514911989E+04   -0.54581E-02   -0.69512E-04  2956   0.866E-03    0.492E-01
RMM: 355    -0.228514980401E+04   -0.68412E-03   -0.11245E-04  2744   0.456E-03    0.482E-01
RMM: 356    -0.228515077378E+04   -0.96977E-03   -0.13518E-04  2838   0.525E-03    0.483E-01
RMM: 357    -0.228514510970E+04    0.56641E-02   -0.67206E-04  2958   0.928E-03    0.475E-01
RMM: 358    -0.228514539756E+04   -0.28786E-03   -0.23774E-05  2456   0.271E-03    0.477E-01
RMM: 359    -0.228514530335E+04    0.94206E-04   -0.28564E-06  1824   0.973E-04    0.477E-01
RMM: 360    -0.228514506799E+04    0.23536E-03   -0.21621E-06  1773   0.103E-03    0.476E-01
RMM: 361    -0.228512634218E+04    0.18726E-01   -0.39824E-03  3775   0.208E-02    0.453E-01
RMM: 362    -0.228512608013E+04    0.26205E-03   -0.18337E-04  2809   0.547E-03    0.458E-01
RMM: 363    -0.228512600873E+04    0.71398E-04   -0.32824E-05  2520   0.249E-03    0.457E-01
RMM: 364    -0.228512306860E+04    0.29401E-02   -0.13715E-04  2671   0.422E-03    0.456E-01
RMM: 365    -0.228512494669E+04   -0.18781E-02   -0.34462E-05  2318   0.248E-03    0.456E-01
RMM: 366    -0.228513169548E+04   -0.67488E-02   -0.95536E-04  2984   0.974E-03    0.462E-01
RMM: 367    -0.228513028000E+04    0.14155E-02   -0.48877E-05  2496   0.326E-03    0.463E-01
RMM: 368    -0.228513003741E+04    0.24259E-03   -0.41413E-06  1806   0.123E-03    0.465E-01
RMM: 369    -0.228513005237E+04   -0.14956E-04   -0.18124E-07  1190   0.666E-04    0.465E-01
RMM: 370    -0.228512983363E+04    0.21874E-03   -0.15424E-06  1411   0.929E-04    0.466E-01
RMM: 371    -0.228472335021E+04    0.40648E+00   -0.44738E-01  4577   0.197E-01    0.998E-01
RMM: 372    -0.228473637130E+04   -0.13021E-01   -0.19718E-02  4650   0.418E-02    0.986E-01
RMM: 373    -0.228473543469E+04    0.93662E-03   -0.96154E-04  3726   0.948E-03    0.987E-01
RMM: 374    -0.228471087648E+04    0.24558E-01   -0.12095E-03  3163   0.106E-02    0.101E+00
RMM: 375    -0.228471061513E+04    0.26135E-03   -0.80601E-05  2754   0.337E-03    0.101E+00
RMM: 376    -0.228478140543E+04   -0.70790E-01   -0.97057E-03  3596   0.247E-02    0.944E-01
RMM: 377    -0.228491399239E+04   -0.13259E+00   -0.34350E-02  4158   0.498E-02    0.812E-01
RMM: 378    -0.228502633798E+04   -0.11235E+00   -0.37429E-02  4343   0.577E-02    0.648E-01
RMM: 379    -0.228510895081E+04   -0.82613E-01   -0.36899E-02  4419   0.615E-02    0.497E-01
RMM: 380    -0.228512761578E+04   -0.18665E-01   -0.71122E-03  4069   0.318E-02    0.461E-01
RMM: 381    -0.228510588224E+04    0.21734E-01   -0.37808E-03  3627   0.205E-02    0.502E-01
RMM: 382    -0.228512230141E+04   -0.16419E-01   -0.16750E-03  3242   0.141E-02    0.470E-01
RMM: 383    -0.228513875577E+04   -0.16454E-01   -0.27268E-03  3663   0.185E-02    0.441E-01
RMM: 384    -0.228514006831E+04   -0.13125E-02   -0.24544E-04  2918   0.748E-03    0.442E-01
RMM: 385    -0.228513963556E+04    0.43275E-03   -0.19017E-05  2619   0.222E-03    0.442E-01
RMM: 386    -0.228516337216E+04   -0.23737E-01   -0.80095E-03  3962   0.286E-02    0.538E-01
RMM: 387    -0.228517902630E+04   -0.15654E-01   -0.91388E-03  3666   0.270E-02    0.848E-01
RMM: 388    -0.228518675759E+04   -0.77313E-02   -0.52268E-03  3744   0.199E-02    0.108E+00
RMM: 389    -0.228518216428E+04    0.45933E-02   -0.76062E-04  2981   0.875E-03    0.950E-01
RMM: 390    -0.228517546385E+04    0.67004E-02   -0.54351E-03  3700   0.195E-02    0.714E-01
RMM: 391    -0.228517665565E+04   -0.11918E-02   -0.12827E-02  4060   0.340E-02    0.735E-01
RMM: 392    -0.228517420134E+04    0.24543E-02   -0.13756E-03  3129   0.125E-02    0.718E-01
RMM: 393    -0.228517254182E+04    0.16595E-02   -0.21905E-04  2885   0.560E-03    0.695E-01
RMM: 394    -0.228517118526E+04    0.13566E-02   -0.20127E-04  2843   0.577E-03    0.665E-01
RMM: 395    -0.228517081303E+04    0.37223E-03   -0.55420E-04  3025   0.833E-03    0.639E-01
RMM: 396    -0.228516904077E+04    0.17723E-02   -0.24862E-04  2820   0.629E-03    0.646E-01
RMM: 397    -0.228516546114E+04    0.35796E-02   -0.46744E-04  3030   0.760E-03    0.624E-01
RMM: 398    -0.228515354272E+04    0.11918E-01   -0.76952E-03  3976   0.268E-02    0.480E-01
RMM: 399    -0.228515648365E+04   -0.29409E-02   -0.11638E-03  3161   0.129E-02    0.486E-01
RMM: 400    -0.228515329303E+04    0.31906E-02   -0.13324E-03  3285   0.117E-02    0.445E-01
RMM: 401    -0.228515835667E+04   -0.50636E-02   -0.83459E-04  3143   0.107E-02
   1 F= -.23052714E+04 E0= -.23052708E+04  d E =-.230527E+04  mag=     6.0035
       N       E                     dE             d eps       ncg     rms          rms(c)
DAV:   1    -0.228516478127E+04   -0.11488E-01   -0.91296E-01  4432   0.103E+00    0.610E-01
RMM:   2    -0.228525672289E+04   -0.91942E-01   -0.22922E-01  4407   0.209E-01    0.210E+00
RMM:   3    -0.228518626753E+04    0.70455E-01   -0.36848E-02  4381   0.101E-01    0.910E-01
RMM:   4    -0.228516297059E+04    0.23297E-01   -0.14892E-02  4882   0.435E-02    0.669E-01
RMM:   5    -0.228515036117E+04    0.12609E-01   -0.41935E-03  4449   0.378E-02    0.426E-01
RMM:   6    -0.228514616010E+04    0.42011E-02   -0.21035E-03  4453   0.324E-02    0.402E-01
RMM:   7    -0.228513170504E+04    0.14455E-01   -0.50852E-03  4520   0.284E-02    0.433E-01
RMM:   8    -0.228509404186E+04    0.37663E-01   -0.12235E-02  4313   0.393E-02    0.461E-01
RMM:   9    -0.228505570374E+04    0.38338E-01   -0.11346E-02  4328   0.360E-02    0.536E-01
RMM:  10    -0.228499085357E+04    0.64850E-01   -0.15931E-02  4072   0.398E-02    0.615E-01
RMM:  11    -0.228499744137E+04   -0.65878E-02   -0.78827E-04  3052   0.112E-02    0.611E-01
RMM:  12    -0.228500013181E+04   -0.26904E-02   -0.75352E-05  2926   0.404E-03    0.603E-01
RMM:  13    -0.228500221742E+04   -0.20856E-02   -0.36606E-05  2733   0.285E-03    0.596E-01
RMM:  14    -0.228511362219E+04   -0.11140E+00   -0.47583E-02  4523   0.682E-02    0.383E-01
RMM:  15    -0.228517900564E+04   -0.65383E-01   -0.56288E-02  4507   0.759E-02    0.421E-01
RMM:  16    -0.228519409248E+04   -0.15087E-01   -0.15416E-02  4163   0.373E-02    0.905E-01
RMM:  17    -0.228517152181E+04    0.22571E-01   -0.22790E-02  4225   0.353E-02    0.533E-01
RMM:  18    -0.228514161416E+04    0.29908E-01   -0.15512E-02  4206   0.425E-02    0.387E-01
RMM:  19    -0.228510429170E+04    0.37322E-01   -0.13505E-02  4328   0.405E-02    0.462E-01
RMM:  20    -0.228505782487E+04    0.46467E-01   -0.13812E-02  4261   0.385E-02    0.555E-01
RMM:  21    -0.228499111478E+04    0.66710E-01   -0.18096E-02  4284   0.429E-02    0.667E-01
RMM:  22    -0.228496053000E+04    0.30585E-01   -0.56625E-03  3680   0.238E-02    0.705E-01
RMM:  23    -0.228488931067E+04    0.71219E-01   -0.12568E-02  4090   0.328E-02    0.783E-01
RMM:  24    -0.228488693675E+04    0.23739E-02   -0.79260E-04  3064   0.111E-02    0.786E-01
RMM:  25    -0.228488114429E+04    0.57925E-02   -0.16262E-04  3042   0.506E-03    0.796E-01
RMM:  26    -0.228485749045E+04    0.23654E-01   -0.11876E-03  3189   0.106E-02    0.818E-01
RMM:  27    -0.228492219381E+04   -0.64703E-01   -0.80348E-03  3593   0.238E-02    0.754E-01
RMM:  28    -0.228498389102E+04   -0.61697E-01   -0.11088E-02  3835   0.289E-02    0.695E-01
RMM:  29    -0.228501779969E+04   -0.33909E-01   -0.48201E-03  3501   0.208E-02    0.658E-01
RMM:  30    -0.228504939359E+04   -0.31594E-01   -0.44436E-03  3699   0.209E-02    0.617E-01
RMM:  31    -0.228502613784E+04    0.23256E-01   -0.15559E-03  3190   0.124E-02    0.638E-01
RMM:  32    -0.228504601469E+04   -0.19877E-01   -0.11916E-03  3103   0.108E-02    0.610E-01
RMM:  33    -0.228505034523E+04   -0.43305E-02   -0.19435E-04  2849   0.569E-03    0.604E-01
RMM:  34    -0.228506038148E+04   -0.10036E-01   -0.47844E-04  3030   0.771E-03    0.595E-01
RMM:  35    -0.228506097807E+04   -0.59659E-03   -0.32910E-05  2590   0.314E-03    0.593E-01
RMM:  36    -0.228506068563E+04    0.29244E-03   -0.29078E-06  2180   0.121E-03    0.594E-01
RMM:  37    -0.228506785113E+04   -0.71655E-02   -0.24086E-04  2788   0.529E-03    0.586E-01
RMM:  38    -0.228506951568E+04   -0.16646E-02   -0.37071E-05  2442   0.258E-03    0.583E-01
RMM:  39    -0.228510088358E+04   -0.31368E-01   -0.49205E-03  3724   0.217E-02    0.531E-01
RMM:  40    -0.228513026710E+04   -0.29384E-01   -0.70940E-03  3850   0.270E-02    0.498E-01
RMM:  41    -0.228512439027E+04    0.58768E-02   -0.31632E-04  2982   0.712E-03    0.504E-01
RMM:  42    -0.228512636692E+04   -0.19766E-02   -0.54121E-05  2616   0.301E-03    0.508E-01
RMM:  43    -0.228513944746E+04   -0.13081E-01   -0.16820E-03  3278   0.135E-02    0.499E-01
RMM:  44    -0.228514353801E+04   -0.40906E-02   -0.39360E-04  2934   0.709E-03    0.496E-01
RMM:  45    -0.228514177436E+04    0.17637E-02   -0.38843E-05  2553   0.330E-03    0.499E-01
RMM:  46    -0.228515143879E+04   -0.96644E-02   -0.10541E-03  3140   0.104E-02    0.531E-01
RMM:  47    -0.228514759804E+04    0.38408E-02   -0.13923E-04  2763   0.452E-03    0.516E-01
RMM:  48    -0.228515430565E+04   -0.67076E-02   -0.57469E-04  2920   0.790E-03    0.538E-01
RMM:  49    -0.228515541466E+04   -0.11090E-02   -0.66412E-05  2637   0.361E-03    0.541E-01
RMM:  50    -0.228515591718E+04   -0.50252E-03   -0.27683E-05  2487   0.256E-03    0.532E-01
RMM:  51    -0.228516098672E+04   -0.50695E-02   -0.53189E-04  3017   0.788E-03    0.555E-01
RMM:  52    -0.228516095347E+04    0.33254E-04   -0.23808E-04  2817   0.620E-03    0.619E-01
RMM:  53    -0.228516015105E+04    0.80241E-03   -0.52201E-05  2497   0.294E-03    0.616E-01
RMM:  54    -0.228516121992E+04   -0.10689E-02   -0.25772E-05  2148   0.204E-03    0.624E-01
RMM:  55    -0.228514820554E+04    0.13014E-01   -0.25503E-03  3454   0.167E-02    0.558E-01
RMM:  56    -0.228514962109E+04   -0.14156E-02   -0.52189E-04  2899   0.729E-03    0.626E-01
RMM:  57    -0.228519531396E+04   -0.45693E-01   -0.56123E-02  4279   0.554E-02    0.120E+00
RMM:  58    -0.228520712914E+04   -0.11815E-01   -0.97334E-03  3581   0.227E-02    0.170E+00
RMM:  59    -0.228520935363E+04   -0.22245E-02   -0.10340E-03  3062   0.945E-03    0.177E+00
RMM:  60    -0.228520962199E+04   -0.26835E-03   -0.28846E-04  2878   0.573E-03    0.175E+00
RMM:  61    -0.228521045681E+04   -0.83482E-03   -0.99571E-05  2688   0.369E-03    0.176E+00
RMM:  62    -0.228521574280E+04   -0.52860E-02   -0.16810E-03  3597   0.108E-02    0.182E+00
RMM:  63    -0.228521532828E+04    0.41452E-03   -0.12244E-04  2782   0.527E-03    0.185E+00
RMM:  64    -0.228521384524E+04    0.14830E-02   -0.28706E-04  2744   0.463E-03    0.185E+00
RMM:  65    -0.228521384003E+04    0.52097E-05   -0.11355E-05  2322   0.215E-03
   2 F= -.23053272E+04 E0= -.23053194E+04  d E =-.557368E-01  mag=     6.0003
       N       E                     dE             d eps       ncg     rms          rms(c)
DAV:   1    -0.228521032572E+04    0.35195E-02   -0.24247E-03  4992   0.273E-02    0.176E+00
RMM:   2    -0.228532232121E+04   -0.11200E+00   -0.16595E-01  4502   0.118E-01    0.215E+00
RMM:   3    -0.228533925120E+04   -0.16930E-01   -0.33244E-02  4715   0.577E-02    0.184E+00
RMM:   4    -0.228534991795E+04   -0.10667E-01   -0.28242E-02  4921   0.540E-02    0.232E+00
RMM:   5    -0.228530800555E+04    0.41912E-01   -0.12970E-01  4799   0.117E-01    0.138E+00
RMM:   6    -0.228529000330E+04    0.18002E-01   -0.15583E-01  4586   0.145E-01    0.879E-01
RMM:   7    -0.228527342868E+04    0.16575E-01   -0.94313E-02  4614   0.121E-01    0.865E-01
RMM:   8    -0.228528089729E+04   -0.74686E-02   -0.62319E-02  4450   0.991E-02    0.151E-01
RMM:   9    -0.228528158585E+04   -0.68856E-03   -0.87921E-03  4770   0.539E-02    0.233E-01
RMM:  10    -0.228528238957E+04   -0.80372E-03   -0.33046E-03  4541   0.228E-02    0.178E-01
RMM:  11    -0.228528276691E+04   -0.37734E-03   -0.48354E-03  4177   0.307E-02    0.871E-02
RMM:  12    -0.228528291801E+04   -0.15109E-03   -0.29290E-04  3411   0.114E-02    0.924E-02
RMM:  13    -0.228528312245E+04   -0.20444E-03   -0.60055E-04  3682   0.108E-02    0.155E-02
RMM:  14    -0.228528324416E+04   -0.12172E-03   -0.68237E-05  2989   0.601E-03    0.133E-02
RMM:  15    -0.228528332306E+04   -0.78897E-04   -0.27361E-05  2902   0.400E-03    0.504E-03
RMM:  16    -0.228528336999E+04   -0.46927E-04   -0.21175E-05  2811   0.400E-03    0.746E-03
RMM:  17    -0.228528338730E+04   -0.17314E-04   -0.12079E-05  2768   0.330E-03    0.250E-03
RMM:  18    -0.228528339287E+04   -0.55714E-05   -0.33489E-06  2419   0.216E-03
   3 F= -.23053967E+04 E0= -.23053966E+04  d E =-.125283E+00  mag=     6.0000
       N       E                     dE             d eps       ncg     rms          rms(c)
DAV:   1    -0.228529039932E+04   -0.70120E-02   -0.21873E-01  4944   0.510E-01    0.192E-01
RMM:   2    -0.228529083610E+04   -0.43678E-03   -0.81934E-03  4437   0.872E-02    0.983E-02
RMM:   3    -0.228529063287E+04    0.20323E-03   -0.63420E-04  4403   0.418E-02    0.120E-01
RMM:   4    -0.228529056832E+04    0.64550E-04   -0.27225E-04  4124   0.125E-02    0.918E-02
RMM:   5    -0.228529045722E+04    0.11110E-03   -0.22572E-04  4722   0.136E-02    0.207E-02
RMM:   6    -0.228529044103E+04    0.16198E-04   -0.24711E-05  3110   0.578E-03    0.129E-02
RMM:   7    -0.228529043177E+04    0.92540E-05   -0.15472E-05  2842   0.365E-03
   4 F= -.23054036E+04 E0= -.23054036E+04  d E =-.132198E+00  mag=     6.0000
       N       E                     dE             d eps       ncg     rms          rms(c)
DAV:   1    -0.228529130743E+04   -0.86640E-03   -0.17430E-02  5216   0.145E-01    0.538E-02
RMM:   2    -0.228529134156E+04   -0.34132E-04   -0.68438E-04  4966   0.274E-02    0.296E-02
RMM:   3    -0.228529132751E+04    0.14048E-04   -0.60009E-05  3382   0.121E-02    0.470E-02
RMM:   4    -0.228529131441E+04    0.13105E-04   -0.22959E-05  2809   0.432E-03    0.209E-02
RMM:   5    -0.228529130242E+04    0.11980E-04   -0.22830E-05  2991   0.444E-03    0.591E-03
RMM:   6    -0.228529130096E+04    0.14641E-05   -0.44331E-06  2779   0.395E-03
   5 F= -.23054044E+04 E0= -.23054044E+04  d E =-.133032E+00  mag=     6.0000
       N       E                     dE             d eps       ncg     rms          rms(c)
DAV:   1    -0.228529166560E+04   -0.36318E-03   -0.17337E-02  4796   0.145E-01    0.541E-02
RMM:   2    -0.228529170066E+04   -0.35062E-04   -0.67387E-04  4606   0.254E-02    0.274E-02
RMM:   3    -0.228529167865E+04    0.22017E-04   -0.46755E-05  3282   0.119E-02    0.207E-02
RMM:   4    -0.228529167829E+04    0.35801E-06   -0.31868E-05  2914   0.498E-03
   6 F= -.23054048E+04 E0= -.23054048E+04  d E =-.133375E+00  mag=     6.0000
       N       E                     dE             d eps       ncg     rms          rms(c)
DAV:   1    -0.228529168317E+04   -0.45274E-05   -0.91552E-04  5516   0.344E-02    0.157E-02
RMM:   2    -0.228529168593E+04   -0.27547E-05   -0.50546E-05  3474   0.801E-03
   7 F= -.23054048E+04 E0= -.23054048E+04  d E =-.133374E+00  mag=     6.0000
       N       E                     dE             d eps       ncg     rms          rms(c)
DAV:   1    -0.228529328806E+04   -0.16049E-02   -0.14822E-01  4384   0.420E-01    0.174E-01
RMM:   2    -0.228529355153E+04   -0.26346E-03   -0.47991E-03  4660   0.719E-02    0.808E-02
RMM:   3    -0.228529350695E+04    0.44573E-04   -0.52869E-04  4717   0.430E-02    0.132E-01
RMM:   4    -0.228529342286E+04    0.84096E-04   -0.19260E-04  3746   0.101E-02    0.586E-02
RMM:   5    -0.228529337110E+04    0.51759E-04   -0.11890E-04  4193   0.109E-02    0.114E-02
RMM:   6    -0.228529336403E+04    0.70713E-05   -0.14779E-05  2840   0.638E-03
   8 F= -.23054063E+04 E0= -.23054063E+04  d E =-.151440E-02  mag=     6.0000
       N       E                     dE             d eps       ncg     rms          rms(c)
DAV:   1    -0.228529336382E+04    0.72742E-05   -0.10233E-03  5504   0.349E-02    0.158E-02
RMM:   2    -0.228529336596E+04   -0.21375E-05   -0.33094E-05  3212   0.752E-03
   9 F= -.23054063E+04 E0= -.23054063E+04  d E =-.152979E-02  mag=     6.0000
       N       E                     dE             d eps       ncg     rms          rms(c)
DAV:   1    -0.228529405341E+04   -0.68959E-03   -0.83578E-02  4400   0.318E-01    0.117E-01
RMM:   2    -0.228529423304E+04   -0.17963E-03   -0.23178E-03  5120   0.503E-02    0.722E-02
RMM:   3    -0.228529428610E+04   -0.53065E-04   -0.31224E-04  4841   0.242E-02    0.148E-01
RMM:   4    -0.228529416961E+04    0.11649E-03   -0.11305E-04  2972   0.675E-03    0.222E-02
RMM:   5    -0.228529415781E+04    0.11802E-04   -0.44254E-05  3547   0.630E-03    0.664E-03
RMM:   6    -0.228529415796E+04   -0.14491E-06   -0.64930E-06  2781   0.530E-03
  10 F= -.23054070E+04 E0= -.23054070E+04  d E =-.726989E-03  mag=     6.0000
       N       E                     dE             d eps       ncg     rms          rms(c)
DAV:   1    -0.228529421838E+04   -0.60570E-04   -0.13306E-02  5016   0.127E-01    0.465E-02
RMM:   2    -0.228529424421E+04   -0.25833E-04   -0.36177E-04  4463   0.195E-02    0.169E-02
RMM:   3    -0.228529424014E+04    0.40793E-05   -0.27237E-05  2940   0.112E-02
  11 F= -.23054071E+04 E0= -.23054071E+04  d E =-.782956E-03  mag=     6.0000
       N       E                     dE             d eps       ncg     rms          rms(c)
DAV:   1    -0.228529471771E+04   -0.47349E-03   -0.10292E-01  4384   0.355E-01    0.976E-02
RMM:   2    -0.228529492313E+04   -0.20542E-03   -0.25392E-03  4422   0.505E-02    0.401E-02
RMM:   3    -0.228529490535E+04    0.17785E-04   -0.14232E-04  4176   0.208E-02    0.629E-02
RMM:   4    -0.228529488692E+04    0.18425E-04   -0.36111E-05  2821   0.501E-03    0.281E-02
RMM:   5    -0.228529487651E+04    0.10410E-04   -0.33281E-05  3448   0.562E-03    0.631E-03
RMM:   6    -0.228529487679E+04   -0.28397E-06   -0.44075E-06  2769   0.474E-03
  12 F= -.23054077E+04 E0= -.23054077E+04  d E =-.594014E-03  mag=     6.0000
       N       E                     dE             d eps       ncg     rms          rms(c)
DAV:   1    -0.228529493192E+04   -0.55414E-04   -0.47448E-02  4552   0.241E-01    0.668E-02
RMM:   2    -0.228529503226E+04   -0.10033E-03   -0.11998E-03  4360   0.345E-02    0.317E-02
RMM:   3    -0.228529503208E+04    0.17593E-06   -0.70016E-05  3429   0.136E-02
  13 F= -.23054078E+04 E0= -.23054078E+04  d E =-.720079E-03  mag=     6.0000
       N       E                     dE             d eps       ncg     rms          rms(c)
DAV:   1    -0.228529543116E+04   -0.39890E-03   -0.93318E-02  4384   0.339E-01    0.796E-02
RMM:   2    -0.228529562666E+04   -0.19550E-03   -0.24109E-03  4483   0.490E-02    0.373E-02
RMM:   3    -0.228529559899E+04    0.27668E-04   -0.14084E-04  4252   0.239E-02    0.284E-02
RMM:   4    -0.228529559995E+04   -0.96092E-06   -0.43712E-05  3098   0.583E-03
  14 F= -.23054083E+04 E0= -.23054083E+04  d E =-.493038E-03  mag=     6.0000
       N       E                     dE             d eps       ncg     rms          rms(c)
DAV:   1    -0.228529564931E+04   -0.50317E-04   -0.53155E-02  4672   0.256E-01    0.623E-02
RMM:   2    -0.228529579643E+04   -0.14712E-03   -0.14133E-03  4934   0.386E-02    0.877E-02
RMM:   3    -0.228529576893E+04    0.27504E-04   -0.15366E-04  4128   0.186E-02    0.574E-02
RMM:   4    -0.228529574473E+04    0.24197E-04   -0.22173E-05  2803   0.453E-03    0.155E-02
RMM:   5    -0.228529573790E+04    0.68307E-05   -0.20826E-05  2903   0.460E-03
  15 F= -.23054084E+04 E0= -.23054084E+04  d E =-.573907E-03  mag=     6.0000
       N       E                     dE             d eps       ncg     rms          rms(c)
DAV:   1    -0.228529603089E+04   -0.28616E-03   -0.11927E-01  4384   0.382E-01    0.849E-02
RMM:   2    -0.228529632967E+04   -0.29878E-03   -0.32075E-03  4758   0.571E-02    0.728E-02
RMM:   3    -0.228529633725E+04   -0.75868E-05   -0.27243E-04  4513   0.277E-02    0.101E-01
RMM:   4    -0.228529627870E+04    0.58557E-04   -0.62172E-05  2883   0.594E-03    0.222E-02
RMM:   5    -0.228529626799E+04    0.10712E-04   -0.31322E-05  3139   0.590E-03    0.768E-03
RMM:   6    -0.228529626810E+04   -0.11010E-06   -0.60322E-06  2781   0.485E-03
  16 F= -.23054088E+04 E0= -.23054088E+04  d E =-.445837E-03  mag=     6.0000
       N       E                     dE             d eps       ncg     rms          rms(c)
DAV:   1    -0.228529627127E+04   -0.32858E-05   -0.53510E-02  4464   0.256E-01    0.565E-02
RMM:   2    -0.228529640045E+04   -0.12918E-03   -0.14369E-03  4418   0.376E-02    0.357E-02
RMM:   3    -0.228529640420E+04   -0.37447E-05   -0.10845E-04  4124   0.192E-02    0.619E-02
RMM:   4    -0.228529638356E+04    0.20640E-04   -0.26904E-05  2801   0.393E-03    0.162E-02
RMM:   5    -0.228529637795E+04    0.56038E-05   -0.13460E-05  2798   0.393E-03
  17 F= -.23054089E+04 E0= -.23054089E+04  d E =-.498998E-03  mag=     6.0000
       N       E                     dE             d eps       ncg     rms          rms(c)
DAV:   1    -0.228529656692E+04   -0.18336E-03   -0.12923E-01  4384   0.398E-01    0.770E-02
RMM:   2    -0.228529688208E+04   -0.31516E-03   -0.33700E-03  4606   0.582E-02    0.617E-02
RMM:   3    -0.228529689161E+04   -0.95254E-05   -0.26933E-04  4309   0.303E-02    0.891E-02
RMM:   4    -0.228529684748E+04    0.44125E-04   -0.54301E-05  2889   0.584E-03    0.225E-02
RMM:   5    -0.228529683649E+04    0.10993E-04   -0.26374E-05  2907   0.582E-03    0.892E-03
RMM:   6    -0.228529683639E+04    0.96770E-07   -0.73492E-06  2787   0.480E-03
  18 F= -.23054093E+04 E0= -.23054093E+04  d E =-.415821E-03  mag=     6.0000
       N       E                     dE             d eps       ncg     rms          rms(c)
DAV:   1    -0.228529654971E+04    0.28678E-03   -0.22020E-01  4384   0.520E-01    0.101E-01
RMM:   2    -0.228529710324E+04   -0.55353E-03   -0.59045E-03  4380   0.746E-02    0.811E-02
RMM:   3    -0.228529710444E+04   -0.12022E-05   -0.37602E-04  4354   0.315E-02    0.116E-01
RMM:   4    -0.228529702877E+04    0.75677E-04   -0.92456E-05  3154   0.693E-03    0.296E-02
RMM:   5    -0.228529700902E+04    0.19745E-04   -0.49620E-05  3890   0.719E-03    0.111E-02
RMM:   6    -0.228529700837E+04    0.64890E-06   -0.86409E-06  2799   0.543E-03
  19 F= -.23054094E+04 E0= -.23054094E+04  d E =-.532063E-03  mag=     6.0000
       N       E                     dE             d eps       ncg     rms          rms(c)
DAV:   1    -0.228529716552E+04   -0.15650E-03   -0.11516E-01  4384   0.377E-01    0.736E-02
RMM:   2    -0.228529746161E+04   -0.29608E-03   -0.31280E-03  4487   0.545E-02    0.594E-02
RMM:   3    -0.228529746353E+04   -0.19209E-05   -0.20840E-04  4303   0.233E-02    0.859E-02
RMM:   4    -0.228529742230E+04    0.41229E-04   -0.48529E-05  2869   0.524E-03    0.206E-02
RMM:   5    -0.228529741356E+04    0.87352E-05   -0.24020E-05  2848   0.526E-03
  20 F= -.23054098E+04 E0= -.23054098E+04  d E =-.389509E-03  mag=     6.0000
       N       E                     dE             d eps       ncg     rms          rms(c)
DAV:   1    -0.228529713153E+04    0.29077E-03   -0.22363E-01  4384   0.524E-01    0.103E-01
RMM:   2    -0.228529768720E+04   -0.55567E-03   -0.58739E-03  4578   0.767E-02    0.865E-02
RMM:   3    -0.228529770555E+04   -0.18350E-04   -0.50171E-04  4395   0.420E-02    0.120E-01
RMM:   4    -0.228529762403E+04    0.81525E-04   -0.99584E-05  3194   0.769E-03    0.286E-02
RMM:   5    -0.228529760644E+04    0.17590E-04   -0.50152E-05  3834   0.769E-03    0.103E-02
RMM:   6    -0.228529760648E+04   -0.41095E-07   -0.91085E-06  2797   0.542E-03
  21 F= -.23054100E+04 E0= -.23054100E+04  d E =-.560548E-03  mag=     6.0000
       N       E                     dE             d eps       ncg     rms          rms(c)
DAV:   1    -0.228529785931E+04   -0.25288E-03   -0.93963E-02  4416   0.341E-01    0.747E-02
RMM:   2    -0.228529810854E+04   -0.24923E-03   -0.26770E-03  4559   0.506E-02    0.551E-02
RMM:   3    -0.228529811476E+04   -0.62139E-05   -0.20193E-04  4407   0.244E-02    0.874E-02
RMM:   4    -0.228529807295E+04    0.41810E-04   -0.49339E-05  2830   0.520E-03    0.199E-02
RMM:   5    -0.228529806506E+04    0.78819E-05   -0.20967E-05  2820   0.505E-03
  22 F= -.23054104E+04 E0= -.23054104E+04  d E =-.429279E-03  mag=     6.0000
       N       E                     dE             d eps       ncg     rms          rms(c)
DAV:   1    -0.228529793546E+04    0.13748E-03   -0.13645E-01  4384   0.410E-01    0.904E-02
RMM:   2    -0.228529828984E+04   -0.35438E-03   -0.38152E-03  4841   0.619E-02    0.700E-02
RMM:   3    -0.228529830478E+04   -0.14940E-04   -0.31489E-04  4390   0.306E-02    0.107E-01
RMM:   4    -0.228529824109E+04    0.63696E-04   -0.74318E-05  2931   0.653E-03    0.241E-02
RMM:   5    -0.228529822834E+04    0.12753E-04   -0.33704E-05  3149   0.636E-03    0.922E-03
RMM:   6    -0.228529822803E+04    0.30716E-06   -0.79144E-06  2797   0.521E-03
  23 F= -.23054105E+04 E0= -.23054105E+04  d E =-.556747E-03  mag=     6.0000
       N       E                     dE             d eps       ncg     rms          rms(c)
DAV:   1    -0.228529834426E+04   -0.11592E-03   -0.12301E-01  4384   0.390E-01    0.758E-02
RMM:   2    -0.228529867133E+04   -0.32708E-03   -0.34237E-03  4436   0.564E-02    0.645E-02
RMM:   3    -0.228529867200E+04   -0.66520E-06   -0.24540E-04  4335   0.267E-02    0.871E-02
RMM:   4    -0.228529862904E+04    0.42962E-04   -0.52639E-05  2893   0.547E-03    0.217E-02
RMM:   5    -0.228529861978E+04    0.92602E-05   -0.22892E-05  2814   0.532E-03
  24 F= -.23054109E+04 E0= -.23054109E+04  d E =-.394041E-03  mag=     6.0000
       N       E                     dE             d eps       ncg     rms          rms(c)
DAV:   1    -0.228529814931E+04    0.47972E-03   -0.27625E-01  4368   0.584E-01    0.114E-01
RMM:   2    -0.228529886183E+04   -0.71252E-03   -0.74826E-03  4591   0.852E-02    0.973E-02
RMM:   3    -0.228529887934E+04   -0.17503E-04   -0.60523E-04  4399   0.442E-02    0.131E-01
RMM:   4    -0.228529878214E+04    0.97191E-04   -0.12393E-04  3480   0.850E-03    0.324E-02
RMM:   5    -0.228529876069E+04    0.21451E-04   -0.57822E-05  3949   0.833E-03    0.128E-02
RMM:   6    -0.228529876023E+04    0.46540E-06   -0.11955E-05  2807   0.568E-03
  25 F= -.23054111E+04 E0= -.23054111E+04  d E =-.537870E-03  mag=     6.0000
       N       E                     dE             d eps       ncg     rms          rms(c)
DAV:   1    -0.228529886603E+04   -0.10533E-03   -0.11649E-01  4384   0.379E-01    0.715E-02
RMM:   2    -0.228529917255E+04   -0.30653E-03   -0.32060E-03  4570   0.552E-02    0.620E-02
RMM:   3    -0.228529917278E+04   -0.22404E-06   -0.23551E-04  4418   0.265E-02    0.820E-02
RMM:   4    -0.228529913495E+04    0.37826E-04   -0.46456E-05  2869   0.531E-03    0.209E-02
RMM:   5    -0.228529912669E+04    0.82577E-05   -0.21750E-05  2830   0.524E-03
  26 F= -.23054115E+04 E0= -.23054115E+04  d E =-.414011E-03  mag=     6.0000
       N       E                     dE             d eps       ncg     rms          rms(c)
DAV:   1    -0.228529855127E+04    0.58368E-03   -0.32898E-01  4368   0.637E-01    0.120E-01
RMM:   2    -0.228529938953E+04   -0.83826E-03   -0.87954E-03  4517   0.921E-02    0.107E-01
RMM:   3    -0.228529940298E+04   -0.13455E-04   -0.69191E-04  4413   0.477E-02    0.137E-01
RMM:   4    -0.228529929603E+04    0.10696E-03   -0.14133E-04  3724   0.895E-03    0.352E-02
RMM:   5    -0.228529927111E+04    0.24920E-04   -0.68058E-05  3985   0.896E-03    0.143E-02
RMM:   6    -0.228529927062E+04    0.49005E-06   -0.13535E-05  2805   0.596E-03
  27 F= -.23054117E+04 E0= -.23054117E+04  d E =-.637812E-03  mag=     6.0000
       N       E                     dE             d eps       ncg     rms          rms(c)
DAV:   1    -0.228529932625E+04   -0.55150E-04   -0.15270E-01  4384   0.434E-01    0.859E-02
RMM:   2    -0.228529972732E+04   -0.40107E-03   -0.42494E-03  4549   0.640E-02    0.700E-02
RMM:   3    -0.228529973350E+04   -0.61739E-05   -0.32702E-04  4429   0.319E-02    0.987E-02
RMM:   4    -0.228529967899E+04    0.54504E-04   -0.65883E-05  2968   0.635E-03    0.251E-02
RMM:   5    -0.228529966647E+04    0.12522E-04   -0.32646E-05  3066   0.639E-03    0.102E-02
RMM:   6    -0.228529966635E+04    0.11758E-06   -0.79470E-06  2797   0.505E-03
  28 F= -.23054122E+04 E0= -.23054122E+04  d E =-.476358E-03  mag=     6.0000
       N       E                     dE             d eps       ncg     rms          rms(c)
DAV:   1    -0.228529946801E+04    0.19846E-03   -0.97815E-02  4448   0.348E-01    0.689E-02
RMM:   2    -0.228529972485E+04   -0.25684E-03   -0.27218E-03  4456   0.510E-02    0.570E-02
RMM:   3    -0.228529972853E+04   -0.36821E-05   -0.20192E-04  4304   0.253E-02    0.793E-02
RMM:   4    -0.228529969326E+04    0.35277E-04   -0.42475E-05  2840   0.511E-03    0.202E-02
RMM:   5    -0.228529968444E+04    0.88137E-05   -0.21113E-05  2823   0.512E-03
  29 F= -.23054123E+04 E0= -.23054123E+04  d E =-.559062E-03  mag=     6.0000
       N       E                     dE             d eps       ncg     rms          rms(c)
DAV:   1    -0.228529972251E+04   -0.29252E-04   -0.11137E-01  4416   0.371E-01    0.798E-02
RMM:   2    -0.228530000421E+04   -0.28170E-03   -0.30479E-03  4910   0.556E-02    0.575E-02
RMM:   3    -0.228530001379E+04   -0.95765E-05   -0.24775E-04  4502   0.265E-02    0.940E-02
RMM:   4    -0.228529996552E+04    0.48268E-04   -0.54625E-05  2868   0.571E-03    0.208E-02
RMM:   5    -0.228529995637E+04    0.91493E-05   -0.23789E-05  2873   0.542E-03
  30 F= -.23054126E+04 E0= -.23054126E+04  d E =-.351618E-03  mag=     6.0000
       N       E                     dE             d eps       ncg     rms          rms(c)
DAV:   1    -0.228529976326E+04    0.20226E-03   -0.86216E-02  4432   0.327E-01    0.703E-02
RMM:   2    -0.228529998453E+04   -0.22127E-03   -0.23895E-03  5068   0.496E-02    0.527E-02
RMM:   3    -0.228529998983E+04   -0.52919E-05   -0.19058E-04  4267   0.220E-02    0.833E-02
RMM:   4    -0.228529995118E+04    0.38647E-04   -0.42254E-05  2822   0.518E-03    0.184E-02
RMM:   5    -0.228529994309E+04    0.80840E-05   -0.19689E-05  2818   0.492E-03
  31 F= -.23054127E+04 E0= -.23054127E+04  d E =-.408551E-03  mag=     6.0000
       N       E                     dE             d eps       ncg     rms          rms(c)
DAV:   1    -0.228529996543E+04   -0.14254E-04   -0.10036E-01  4416   0.351E-01    0.640E-02
RMM:   2    -0.228530021820E+04   -0.25277E-03   -0.26580E-03  4978   0.520E-02    0.563E-02
RMM:   3    -0.228530021790E+04    0.30754E-06   -0.20065E-04  4289   0.241E-02    0.735E-02
RMM:   4    -0.228530018732E+04    0.30580E-04   -0.36103E-05  2831   0.521E-03    0.187E-02
RMM:   5    -0.228530017992E+04    0.74006E-05   -0.19328E-05  2815   0.498E-03
  32 F= -.23054130E+04 E0= -.23054130E+04  d E =-.337221E-03  mag=     6.0000
       N       E                     dE             d eps       ncg     rms          rms(c)
DAV:   1    -0.228529948632E+04    0.70100E-03   -0.32234E-01  4400   0.630E-01    0.114E-01
RMM:   2    -0.228530027379E+04   -0.78747E-03   -0.83402E-03  4485   0.904E-02    0.957E-02
RMM:   3    -0.228530028594E+04   -0.12153E-04   -0.63939E-04  4380   0.478E-02    0.130E-01
RMM:   4    -0.228530019147E+04    0.94469E-04   -0.12722E-04  3590   0.872E-03    0.342E-02
RMM:   5    -0.228530016615E+04    0.25325E-04   -0.65218E-05  3980   0.882E-03    0.147E-02
RMM:   6    -0.228530016510E+04    0.10539E-05   -0.13834E-05  2803   0.594E-03
  33 F= -.23054132E+04 E0= -.23054132E+04  d E =-.502243E-03  mag=     6.0000
       N       E                     dE             d eps       ncg     rms          rms(c)
DAV:   1    -0.228530018760E+04   -0.21445E-04   -0.11781E-01  4448   0.381E-01    0.714E-02
RMM:   2    -0.228530048381E+04   -0.29621E-03   -0.31349E-03  4620   0.554E-02    0.581E-02
RMM:   3    -0.228530048588E+04   -0.20713E-05   -0.22894E-04  4410   0.267E-02    0.828E-02
RMM:   4    -0.228530044776E+04    0.38117E-04   -0.47890E-05  2886   0.531E-03    0.206E-02
RMM:   5    -0.228530043915E+04    0.86181E-05   -0.22269E-05  2830   0.521E-03
  34 F= -.23054136E+04 E0= -.23054135E+04  d E =-.377073E-03  mag=     6.0000
       N       E                     dE             d eps       ncg     rms          rms(c)
DAV:   1    -0.228529991697E+04    0.53079E-03   -0.25930E-01  4400   0.564E-01    0.106E-01
RMM:   2    -0.228530054572E+04   -0.62875E-03   -0.66778E-03  4508   0.815E-02    0.875E-02
RMM:   3    -0.228530056199E+04   -0.16276E-04   -0.53002E-04  4404   0.431E-02    0.122E-01
RMM:   4    -0.228530047791E+04    0.84081E-04   -0.10921E-04  3303   0.789E-03    0.305E-02
RMM:   5    -0.228530045773E+04    0.20181E-04   -0.52586E-05  3890   0.793E-03    0.125E-02
RMM:   6    -0.228530045710E+04    0.62946E-06   -0.10739E-05  2800   0.544E-03
  35 F= -.23054137E+04 E0= -.23054137E+04  d E =-.547988E-03  mag=     6.0000
       N       E                     dE             d eps       ncg     rms          rms(c)
DAV:   1    -0.228530048466E+04   -0.26925E-04   -0.12300E-01  4416   0.389E-01    0.797E-02
RMM:   2    -0.228530079273E+04   -0.30807E-03   -0.33091E-03  4538   0.570E-02    0.560E-02
RMM:   3    -0.228530079993E+04   -0.72004E-05   -0.25150E-04  4413   0.287E-02    0.913E-02
RMM:   4    -0.228530075444E+04    0.45491E-04   -0.57122E-05  2898   0.565E-03    0.219E-02
RMM:   5    -0.228530074423E+04    0.10217E-04   -0.24284E-05  2833   0.560E-03    0.906E-03
RMM:   6    -0.228530074407E+04    0.15090E-06   -0.67362E-06  2791   0.456E-03
  36 F= -.23054141E+04 E0= -.23054141E+04  d E =-.374740E-03  mag=     6.0000
       N       E                     dE             d eps       ncg     rms          rms(c)
DAV:   1    -0.228530049914E+04    0.24509E-03   -0.11631E-01  4408   0.379E-01    0.776E-02
RMM:   2    -0.228530079045E+04   -0.29132E-03   -0.31299E-03  4408   0.550E-02    0.559E-02
RMM:   3    -0.228530079688E+04   -0.64316E-05   -0.22753E-04  4294   0.263E-02    0.898E-02
RMM:   4    -0.228530075207E+04    0.44812E-04   -0.54841E-05  2858   0.535E-03    0.213E-02
RMM:   5    -0.228530074141E+04    0.10664E-04   -0.23641E-05  2813   0.530E-03    0.803E-03
RMM:   6    -0.228530074104E+04    0.36886E-06   -0.57782E-06  2785   0.420E-03
  37 F= -.23054142E+04 E0= -.23054142E+04  d E =-.457156E-03  mag=     6.0000
       N       E                     dE             d eps       ncg     rms          rms(c)
DAV:   1    -0.228530061390E+04    0.12751E-03   -0.14760E-01  4408   0.426E-01    0.845E-02
RMM:   2    -0.228530097994E+04   -0.36604E-03   -0.39189E-03  4389   0.613E-02    0.606E-02
RMM:   3    -0.228530098520E+04   -0.52621E-05   -0.26503E-04  4345   0.280E-02    0.968E-02
RMM:   4    -0.228530093379E+04    0.51413E-04   -0.65516E-05  2924   0.583E-03    0.237E-02
RMM:   5    -0.228530092201E+04    0.11780E-04   -0.28129E-05  2868   0.590E-03    0.907E-03
RMM:   6    -0.228530092198E+04    0.30181E-07   -0.71775E-06  2794   0.473E-03
  38 F= -.23054145E+04 E0= -.23054145E+04  d E =-.331106E-03  mag=     6.0000
       N       E                     dE             d eps       ncg     rms          rms(c)
DAV:   1    -0.228530068999E+04    0.23202E-03   -0.76748E-02  4480   0.307E-01    0.613E-02
RMM:   2    -0.228530088093E+04   -0.19095E-03   -0.20419E-03  4465   0.447E-02    0.447E-02
RMM:   3    -0.228530088533E+04   -0.43990E-05   -0.15149E-04  4347   0.226E-02    0.711E-02
RMM:   4    -0.228530085782E+04    0.27515E-04   -0.34538E-05  2820   0.438E-03    0.170E-02
RMM:   5    -0.228530085130E+04    0.65136E-05   -0.15045E-05  2803   0.429E-03
  39 F= -.23054146E+04 E0= -.23054145E+04  d E =-.368922E-03  mag=     6.0000
       N       E                     dE             d eps       ncg     rms          rms(c)
DAV:   1    -0.228530066507E+04    0.19274E-03   -0.17518E-01  4400   0.463E-01    0.899E-02
RMM:   2    -0.228530107876E+04   -0.41368E-03   -0.44459E-03  4497   0.673E-02    0.659E-02
RMM:   3    -0.228530109748E+04   -0.18720E-04   -0.36068E-04  4348   0.368E-02    0.104E-01
RMM:   4    -0.228530103919E+04    0.58284E-04   -0.75018E-05  2986   0.669E-03    0.253E-02
RMM:   5    -0.228530102588E+04    0.13315E-04   -0.34393E-05  3152   0.672E-03    0.104E-02
RMM:   6    -0.228530102584E+04    0.35914E-07   -0.90543E-06  2800   0.522E-03
  40 F= -.23054150E+04 E0= -.23054149E+04  d E =-.392198E-03  mag=     6.0000
       N       E                     dE             d eps       ncg     rms          rms(c)
DAV:   1    -0.228530060947E+04    0.41641E-03   -0.12639E-01  4408   0.393E-01    0.765E-02
RMM:   2    -0.228530091753E+04   -0.30806E-03   -0.33088E-03  4428   0.571E-02    0.548E-02
RMM:   3    -0.228530092453E+04   -0.70062E-05   -0.24356E-04  4418   0.282E-02    0.873E-02
RMM:   4    -0.228530088251E+04    0.42019E-04   -0.51307E-05  2888   0.541E-03    0.219E-02
RMM:   5    -0.228530087187E+04    0.10646E-04   -0.25114E-05  2836   0.559E-03    0.876E-03
RMM:   6    -0.228530087162E+04    0.25125E-06   -0.65051E-06  2790   0.450E-03
  41 F= -.23054150E+04 E0= -.23054150E+04  d E =-.423117E-03  mag=     6.0000
       N       E                     dE             d eps       ncg     rms          rms(c)
DAV:   1    -0.228530076097E+04    0.11090E-03   -0.12981E-01  4440   0.397E-01    0.672E-02
RMM:   2    -0.228530106838E+04   -0.30741E-03   -0.32434E-03  4384   0.564E-02    0.520E-02
RMM:   3    -0.228530107217E+04   -0.37932E-05   -0.21901E-04  4317   0.270E-02    0.758E-02
RMM:   4    -0.228530104047E+04    0.31708E-04   -0.38959E-05  2878   0.505E-03    0.207E-02
RMM:   5    -0.228530103167E+04    0.87980E-05   -0.22282E-05  2818   0.527E-03
  42 F= -.23054153E+04 E0= -.23054153E+04  d E =-.324302E-03  mag=     6.0000
       N       E                     dE             d eps       ncg     rms          rms(c)
DAV:   1    -0.228529902781E+04    0.20127E-02   -0.86672E-01  4400   0.103E+00    0.173E-01
RMM:   2    -0.228530107009E+04   -0.20423E-02   -0.21640E-02  4376   0.145E-01    0.131E-01
RMM:   3    -0.228530106928E+04    0.80172E-06   -0.13294E-03  4387   0.651E-02    0.192E-01
RMM:   4    -0.228530086756E+04    0.20173E-03   -0.27490E-04  4684   0.129E-02    0.543E-02
RMM:   5    -0.228530080715E+04    0.60411E-04   -0.16864E-04  4505   0.129E-02    0.234E-02
RMM:   6    -0.228530080453E+04    0.26146E-05   -0.25358E-05  2866   0.803E-03
  43 F= -.23054155E+04 E0= -.23054155E+04  d E =-.522266E-03  mag=     6.0000
       N       E                     dE             d eps       ncg     rms          rms(c)
DAV:   1    -0.228530072485E+04    0.82301E-04   -0.15906E-01  4464   0.440E-01    0.746E-02
RMM:   2    -0.228530109700E+04   -0.37215E-03   -0.39237E-03  4508   0.631E-02    0.568E-02
RMM:   3    -0.228530110330E+04   -0.63070E-05   -0.27520E-04  4374   0.308E-02    0.854E-02
RMM:   4    -0.228530106351E+04    0.39796E-04   -0.46983E-05  2929   0.559E-03    0.221E-02
RMM:   5    -0.228530105288E+04    0.10628E-04   -0.28178E-05  2954   0.592E-03    0.834E-03
RMM:   6    -0.228530105318E+04   -0.30341E-06   -0.67045E-06  2791   0.461E-03
  44 F= -.23054159E+04 E0= -.23054159E+04  d E =-.401154E-03  mag=     6.0000
       N       E                     dE             d eps       ncg     rms          rms(c)
DAV:   1    -0.228529998358E+04    0.10693E-02   -0.53125E-01  4400   0.803E-01    0.134E-01
RMM:   2    -0.228530123630E+04   -0.12527E-02   -0.13269E-02  4360   0.113E-01    0.997E-02
RMM:   3    -0.228530121464E+04    0.21662E-04   -0.66078E-04  4423   0.397E-02    0.149E-01
RMM:   4    -0.228530109066E+04    0.12398E-03   -0.15745E-04  3964   0.944E-03    0.417E-02
RMM:   5    -0.228530105208E+04    0.38575E-04   -0.10196E-04  4201   0.103E-02    0.168E-02
RMM:   6    -0.228530105154E+04    0.54121E-06   -0.15756E-05  2815   0.717E-03
  45 F= -.23054162E+04 E0= -.23054162E+04  d E =-.678330E-03  mag=     6.0000
       N       E                     dE             d eps       ncg     rms          rms(c)
DAV:   1    -0.228530075721E+04    0.29487E-03   -0.73426E-02  4576   0.299E-01    0.511E-02
RMM:   2    -0.228530093122E+04   -0.17401E-03   -0.18363E-03  4581   0.432E-02    0.394E-02
RMM:   3    -0.228530093339E+04   -0.21696E-05   -0.13118E-04  4181   0.211E-02    0.587E-02
RMM:   4    -0.228530091418E+04    0.19210E-04   -0.21951E-05  2808   0.401E-03    0.151E-02
RMM:   5    -0.228530090865E+04    0.55223E-05   -0.13451E-05  2798   0.405E-03
  46 F= -.23054162E+04 E0= -.23054161E+04  d E =-.639682E-03  mag=     6.0000
       N       E                     dE             d eps       ncg     rms          rms(c)
DAV:   1    -0.228530061400E+04    0.30018E-03   -0.30322E-01  4400   0.606E-01    0.104E-01
RMM:   2    -0.228530131168E+04   -0.69768E-03   -0.74338E-03  4403   0.861E-02    0.744E-02
RMM:   3    -0.228530131836E+04   -0.66732E-05   -0.50148E-04  4353   0.425E-02    0.115E-01
RMM:   4    -0.228530124742E+04    0.70933E-04   -0.10007E-04  3251   0.784E-03    0.320E-02
RMM:   5    -0.228530122614E+04    0.21282E-04   -0.58224E-05  3952   0.823E-03    0.134E-02
RMM:   6    -0.228530122595E+04    0.19369E-06   -0.10450E-05  2804   0.570E-03
  47 F= -.23054167E+04 E0= -.23054166E+04  d E =-.516806E-03  mag=     6.0000
       N       E                     dE             d eps       ncg     rms          rms(c)
DAV:   1    -0.228529977548E+04    0.14507E-02   -0.62229E-01  4400   0.868E-01    0.149E-01
RMM:   2    -0.228530126078E+04   -0.14853E-02   -0.15784E-02  4363   0.123E-01    0.109E-01
RMM:   3    -0.228530122869E+04    0.32085E-04   -0.77232E-04  4421   0.416E-02    0.165E-01
RMM:   4    -0.228530107824E+04    0.15045E-03   -0.19725E-04  4189   0.103E-02    0.460E-02
RMM:   5    -0.228530103163E+04    0.46612E-04   -0.12417E-04  4334   0.113E-02    0.176E-02
RMM:   6    -0.228530103059E+04    0.10451E-05   -0.18008E-05  2816   0.754E-03
  48 F= -.23054168E+04 E0= -.23054167E+04  d E =-.608190E-03  mag=     6.0000
       N       E                     dE             d eps       ncg     rms          rms(c)
DAV:   1    -0.228530045880E+04    0.57283E-03   -0.44765E-01  4400   0.735E-01    0.122E-01
RMM:   2    -0.228530152824E+04   -0.10694E-02   -0.11277E-02  4378   0.104E-01    0.932E-02
RMM:   3    -0.228530151113E+04    0.17113E-04   -0.59664E-04  4431   0.388E-02    0.137E-01
RMM:   4    -0.228530140724E+04    0.10389E-03   -0.13668E-04  3703   0.878E-03    0.380E-02
RMM:   5    -0.228530137717E+04    0.30071E-04   -0.85039E-05  4113   0.959E-03    0.145E-02
RMM:   6    -0.228530137734E+04   -0.17538E-06   -0.13052E-05  2813   0.669E-03
  49 F= -.23054173E+04 E0= -.23054173E+04  d E =-.550606E-03  mag=     6.0000
       N       E                     dE             d eps       ncg     rms          rms(c)
DAV:   1    -0.228530045199E+04    0.92517E-03   -0.40766E-01  4400   0.702E-01    0.117E-01
RMM:   2    -0.228530142479E+04   -0.97279E-03   -0.10271E-02  4366   0.991E-02    0.885E-02
RMM:   3    -0.228530140853E+04    0.16256E-04   -0.54695E-04  4396   0.372E-02    0.131E-01
RMM:   4    -0.228530131423E+04    0.94298E-04   -0.12434E-04  3605   0.839E-03    0.365E-02
RMM:   5    -0.228530128548E+04    0.28748E-04   -0.78141E-05  4085   0.918E-03    0.143E-02
RMM:   6    -0.228530128522E+04    0.26016E-06   -0.12307E-05  2813   0.644E-03
  50 F= -.23054174E+04 E0= -.23054174E+04  d E =-.653816E-03  mag=     6.0000
       N       E                     dE             d eps       ncg     rms          rms(c)
DAV:   1    -0.228530108123E+04    0.20425E-03   -0.37219E-01  4400   0.670E-01    0.127E-01
RMM:   2    -0.228530194330E+04   -0.86206E-03   -0.93412E-03  4359   0.956E-02    0.832E-02
RMM:   3    -0.228530194104E+04    0.22609E-05   -0.52209E-04  4400   0.375E-02    0.140E-01
RMM:   4    -0.228530183474E+04    0.10630E-03   -0.14017E-04  3615   0.863E-03    0.362E-02
RMM:   5    -0.228530180425E+04    0.30488E-04   -0.80711E-05  4064   0.930E-03    0.130E-02
RMM:   6    -0.228530180365E+04    0.60032E-06   -0.12196E-05  2809   0.652E-03
  51 F= -.23054181E+04 E0= -.23054180E+04  d E =-.654168E-03  mag=     6.0000
       N       E                     dE             d eps       ncg     rms          rms(c)
DAV:   1    -0.228530151627E+04    0.28798E-03   -0.13143E-01  4480   0.399E-01    0.756E-02
RMM:   2    -0.228530182077E+04   -0.30450E-03   -0.33117E-03  4456   0.574E-02    0.494E-02
RMM:   3    -0.228530182080E+04   -0.28260E-07   -0.20337E-04  4402   0.248E-02    0.833E-02
RMM:   4    -0.228530178270E+04    0.38095E-04   -0.47938E-05  2877   0.530E-03    0.217E-02
RMM:   5    -0.228530177037E+04    0.12335E-04   -0.28236E-05  2983   0.566E-03    0.833E-03
RMM:   6    -0.228530176984E+04    0.53050E-06   -0.60381E-06  2786   0.447E-03
  52 F= -.23054181E+04 E0= -.23054181E+04  d E =-.701369E-03  mag=     6.0000
       N       E                     dE             d eps       ncg     rms          rms(c)
DAV:   1    -0.228530149671E+04    0.27366E-03   -0.36617E-01  4400   0.664E-01    0.120E-01
RMM:   2    -0.228530233479E+04   -0.83808E-03   -0.90327E-03  4355   0.937E-02    0.792E-02
RMM:   3    -0.228530232339E+04    0.11399E-04   -0.43076E-04  4394   0.308E-02    0.129E-01
RMM:   4    -0.228530223343E+04    0.89958E-04   -0.11723E-04  3443   0.801E-03    0.363E-02
RMM:   5    -0.228530220634E+04    0.27095E-04   -0.76842E-05  4059   0.899E-03    0.132E-02
RMM:   6    -0.228530220623E+04    0.10591E-06   -0.11060E-05  2810   0.647E-03
  53 F= -.23054187E+04 E0= -.23054186E+04  d E =-.555147E-03  mag=     6.0000
       N       E                     dE             d eps       ncg     rms          rms(c)
DAV:   1    -0.228530182230E+04    0.38403E-03   -0.17642E-01  4432   0.461E-01    0.840E-02
RMM:   2    -0.228530222545E+04   -0.40314E-03   -0.43445E-03  4367   0.655E-02    0.561E-02
RMM:   3    -0.228530222530E+04    0.15335E-06   -0.24389E-04  4264   0.256E-02    0.916E-02
RMM:   4    -0.228530217981E+04    0.45484E-04   -0.57150E-05  2961   0.586E-03    0.251E-02
RMM:   5    -0.228530216599E+04    0.13825E-04   -0.37292E-05  3431   0.648E-03    0.909E-03
RMM:   6    -0.228530216583E+04    0.15763E-06   -0.65955E-06  2799   0.484E-03
  54 F= -.23054187E+04 E0= -.23054187E+04  d E =-.597654E-03  mag=     6.0000
       N       E                     dE             d eps       ncg     rms          rms(c)
DAV:   1    -0.228530187968E+04    0.28631E-03   -0.38358E-01  4400   0.679E-01    0.121E-01
RMM:   2    -0.228530274826E+04   -0.86858E-03   -0.93940E-03  4355   0.956E-02    0.794E-02
RMM:   3    -0.228530273502E+04    0.13237E-04   -0.43933E-04  4418   0.305E-02    0.129E-01
RMM:   4    -0.228530264505E+04    0.89971E-04   -0.11652E-04  3384   0.811E-03    0.371E-02
RMM:   5    -0.228530261608E+04    0.28965E-04   -0.80668E-05  4069   0.918E-03    0.141E-02
RMM:   6    -0.228530261569E+04    0.39759E-06   -0.12102E-05  2810   0.679E-03
  55 F= -.23054193E+04 E0= -.23054192E+04  d E =-.551464E-03  mag=     6.0000
       N       E                     dE             d eps       ncg     rms          rms(c)
DAV:   1    -0.228530235187E+04    0.26421E-03   -0.11936E-01  4480   0.379E-01    0.680E-02
[...]
 541 F= -.23054329E+04 E0= -.23054329E+04  d E =-.178304E-04  mag=     6.0000
       N       E                     dE             d eps       ncg     rms          rms(c)
DAV:   1    -0.228531302852E+04   -0.82561E-05   -0.74871E-04  4328   0.309E-02    0.711E-03
RMM:   2    -0.228531303007E+04   -0.15485E-05   -0.21600E-05  2429   0.668E-03
 542 F= -.23054329E+04 E0= -.23054329E+04  d E =-.666542E-05  mag=     6.0000
       N       E                     dE             d eps       ncg     rms          rms(c)
DAV:   1    -0.228531303216E+04   -0.36427E-05   -0.17044E-03  4336   0.460E-02    0.106E-02
RMM:   2    -0.228531303697E+04   -0.48102E-05   -0.47381E-05  3253   0.983E-03
 543 F= -.23054329E+04 E0= -.23054329E+04  d E =-.150513E-04  mag=     6.0000
       N       E                     dE             d eps       ncg     rms          rms(c)
DAV:   1    -0.228531304888E+04   -0.16718E-04   -0.71858E-04  4368   0.304E-02    0.107E-02
RMM:   2    -0.228531305402E+04   -0.51348E-05   -0.29035E-05  2812   0.681E-03
 544 F= -.23054329E+04 E0= -.23054329E+04  d E =-.151013E-04  mag=     6.0000
       N       E                     dE             d eps       ncg     rms          rms(c)
DAV:   1    -0.228531305509E+04   -0.62102E-05   -0.54751E-04  4320   0.265E-02    0.765E-03
RMM:   2    -0.228531305654E+04   -0.14451E-05   -0.18866E-05  2569   0.604E-03
 545 F= -.23054329E+04 E0= -.23054329E+04  d E =-.159475E-04  mag=     6.0000
       N       E                     dE             d eps       ncg     rms          rms(c)
DAV:   1    -0.228531305414E+04    0.95062E-06   -0.20635E-03  4336   0.507E-02    0.123E-02
RMM:   2    -0.228531305981E+04   -0.56669E-05   -0.60208E-05  3426   0.107E-02
 546 F= -.23054329E+04 E0= -.23054329E+04  d E =-.158817E-04  mag=     6.0000
       N       E                     dE             d eps       ncg     rms          rms(c)
DAV:   1    -0.228531305773E+04   -0.35849E-05   -0.68813E-04  4144   0.294E-02    0.136E-02
RMM:   2    -0.228531306773E+04   -0.10004E-04   -0.31386E-05  2557   0.631E-03    0.427E-02
RMM:   3    -0.228531305903E+04    0.87055E-05   -0.90239E-06  2290   0.401E-03
 547 F= -.23054329E+04 E0= -.23054329E+04  d E =-.169832E-04  mag=     6.0000
       N       E                     dE             d eps       ncg     rms          rms(c)
DAV:   1    -0.228531306459E+04    0.31363E-05   -0.72835E-04  4152   0.298E-02    0.572E-03
RMM:   2    -0.228531306614E+04   -0.15467E-05   -0.17072E-05  2391   0.529E-03
 548 F= -.23054329E+04 E0= -.23054329E+04  d E =-.922351E-05  mag=     6.0000
       N       E                     dE             d eps       ncg     rms          rms(c)
DAV:   1    -0.228531306727E+04   -0.26724E-05   -0.13004E-04  4688   0.133E-02    0.635E-03
RMM:   2    -0.228531306980E+04   -0.25315E-05   -0.82881E-06  2287   0.344E-03
 549 F= -.23054329E+04 E0= -.23054329E+04  d E =-.137412E-04  mag=     6.0000
       N       E                     dE             d eps       ncg     rms          rms(c)
DAV:   1    -0.228531306687E+04    0.39622E-06   -0.52403E-04  4296   0.257E-02    0.549E-03
RMM:   2    -0.228531306807E+04   -0.11980E-05   -0.14770E-05  2260   0.545E-03
 550 F= -.23054329E+04 E0= -.23054329E+04  d E =-.137266E-04  mag=     6.0000
       N       E                     dE             d eps       ncg     rms          rms(c)
DAV:   1    -0.228531307595E+04   -0.90806E-05   -0.53169E-04  4248   0.259E-02    0.101E-02
RMM:   2    -0.228531308199E+04   -0.60379E-05   -0.23387E-05  2607   0.615E-03
 551 F= -.23054330E+04 E0= -.23054329E+04  d E =-.190551E-04  mag=     6.0000
       N       E                     dE             d eps       ncg     rms          rms(c)
DAV:   1    -0.228531307752E+04   -0.15717E-05   -0.64474E-04  4288   0.287E-02    0.760E-03
RMM:   2    -0.228531307910E+04   -0.15804E-05   -0.19845E-05  2578   0.644E-03
 552 F= -.23054330E+04 E0= -.23054329E+04  d E =-.216517E-04  mag=     6.0000
       N       E                     dE             d eps       ncg     rms          rms(c)
DAV:   1    -0.228531306066E+04    0.16864E-04   -0.24103E-03  4336   0.547E-02    0.153E-02
RMM:   2    -0.228531307059E+04   -0.99333E-05   -0.73727E-05  3575   0.115E-02
 553 F= -.23054330E+04 E0= -.23054329E+04  d E =-.240903E-04  mag=     6.0000
       N       E                     dE             d eps       ncg     rms          rms(c)
DAV:   1    -0.228531307346E+04   -0.12797E-04   -0.90983E-04  4248   0.338E-02    0.997E-03
RMM:   2    -0.228531307691E+04   -0.34496E-05   -0.25952E-05  2534   0.672E-03
 554 F= -.23054330E+04 E0= -.23054329E+04  d E =-.238447E-04  mag=     6.0000
       N       E                     dE             d eps       ncg     rms          rms(c)
DAV:   1    -0.228531308104E+04   -0.75836E-05   -0.61268E-04  4144   0.276E-02    0.895E-03
RMM:   2    -0.228531308626E+04   -0.52176E-05   -0.19953E-05  2476   0.596E-03
 555 F= -.23054330E+04 E0= -.23054329E+04  d E =-.117510E-04  mag=     6.0000
       N       E                     dE             d eps       ncg     rms          rms(c)
DAV:   1    -0.228531308330E+04   -0.22614E-05   -0.11780E-04  4608   0.123E-02    0.352E-03
RMM:   2    -0.228531308361E+04   -0.30670E-06   -0.44828E-06  2278   0.276E-03
 556 F= -.23054330E+04 E0= -.23054329E+04  d E =-.995760E-05  mag=     6.0000
       N       E                     dE             d eps       ncg     rms          rms(c)
DAV:   1    -0.228531308417E+04   -0.87105E-06   -0.31933E-04  4184   0.200E-02    0.544E-03
RMM:   2    -0.228531308541E+04   -0.12412E-05   -0.90079E-06  2237   0.448E-03
 557 F= -.23054330E+04 E0= -.23054329E+04  d E =-.134725E-04  mag=     6.0000
       N       E                     dE             d eps       ncg     rms          rms(c)
DAV:   1    -0.228531308043E+04    0.37428E-05   -0.12735E-03  4336   0.398E-02    0.893E-03
RMM:   2    -0.228531308311E+04   -0.26833E-05   -0.31055E-05  2951   0.789E-03
 558 F= -.23054330E+04 E0= -.23054330E+04  d E =-.145938E-04  mag=     6.0000
       N       E                     dE             d eps       ncg     rms          rms(c)
DAV:   1    -0.228531309553E+04   -0.15098E-04   -0.13391E-03  4416   0.408E-02    0.123E-02
RMM:   2    -0.228531310383E+04   -0.83059E-05   -0.44313E-05  3164   0.910E-03
 559 F= -.23054330E+04 E0= -.23054330E+04  d E =-.193859E-04  mag=     6.0000
       N       E                     dE             d eps       ncg     rms          rms(c)
DAV:   1    -0.228531310286E+04   -0.73345E-05   -0.56999E-04  4320   0.270E-02    0.763E-03
RMM:   2    -0.228531310422E+04   -0.13579E-05   -0.18042E-05  2606   0.603E-03
 560 F= -.23054330E+04 E0= -.23054330E+04  d E =-.189331E-04  mag=     6.0000
       N       E                     dE             d eps       ncg     rms          rms(c)
DAV:   1    -0.228531310561E+04   -0.27529E-05   -0.20716E-03  4344   0.506E-02    0.118E-02
RMM:   2    -0.228531311186E+04   -0.62481E-05   -0.55261E-05  3394   0.106E-02
 561 F= -.23054330E+04 E0= -.23054330E+04  d E =-.249116E-04  mag=     6.0000
       N       E                     dE             d eps       ncg     rms          rms(c)
DAV:   1    -0.228531313033E+04   -0.24712E-04   -0.24743E-03  4456   0.554E-02    0.139E-02
RMM:   2    -0.228531313755E+04   -0.72214E-05   -0.71315E-05  3914   0.113E-02
 562 F= -.23054330E+04 E0= -.23054330E+04  d E =-.242202E-04  mag=     6.0000
       N       E                     dE             d eps       ncg     rms          rms(c)
DAV:   1    -0.228531314164E+04   -0.11318E-04   -0.17689E-03  4448   0.471E-02    0.152E-02
RMM:   2    -0.228531314978E+04   -0.81347E-05   -0.54203E-05  3360   0.961E-03
 563 F= -.23054330E+04 E0= -.23054330E+04  d E =-.352128E-04  mag=     6.0000
       N       E                     dE             d eps       ncg     rms          rms(c)
DAV:   1    -0.228531315150E+04   -0.98556E-05   -0.22721E-03  4392   0.532E-02    0.142E-02
RMM:   2    -0.228531315680E+04   -0.53034E-05   -0.63844E-05  3802   0.111E-02
 564 F= -.23054330E+04 E0= -.23054330E+04  d E =-.140971E-04  mag=     6.0000
       N       E                     dE             d eps       ncg     rms          rms(c)
DAV:   1    -0.228531315599E+04   -0.44903E-05   -0.23973E-04  5088   0.181E-02    0.139E-02
RMM:   2    -0.228531316485E+04   -0.88645E-05   -0.21828E-05  2561   0.469E-03
 565 F= -.23054331E+04 E0= -.23054330E+04  d E =-.243125E-04  mag=     6.0000
       N       E                     dE             d eps       ncg     rms          rms(c)
DAV:   1    -0.228531315289E+04    0.31027E-05   -0.20826E-03  4360   0.511E-02    0.118E-02
RMM:   2    -0.228531315650E+04   -0.36129E-05   -0.48980E-05  3255   0.960E-03
 566 F= -.23054331E+04 E0= -.23054330E+04  d E =-.687613E-05  mag=     6.0000
       N       E                     dE             d eps       ncg     rms          rms(c)
DAV:   1    -0.228531315486E+04   -0.19764E-05   -0.13325E-04  4840   0.140E-02    0.140E-02
RMM:   2    -0.228531316769E+04   -0.12822E-04   -0.24751E-05  2540   0.382E-03    0.518E-02
RMM:   3    -0.228531315428E+04    0.13405E-04   -0.82253E-06  2298   0.251E-03    0.323E-03
RMM:   4    -0.228531315420E+04    0.80501E-07   -0.12050E-06  2108   0.111E-03
 567 F= -.23054331E+04 E0= -.23054330E+04  d E =-.837688E-05  mag=     6.0000
       N       E                     dE             d eps       ncg     rms          rms(c)
DAV:   1    -0.228531315068E+04    0.36014E-05   -0.22433E-03  4320   0.520E-02    0.120E-02
RMM:   2    -0.228531315536E+04   -0.46759E-05   -0.49481E-05  3354   0.811E-03
 568 F= -.23054331E+04 E0= -.23054331E+04  d E =-.149815E-04  mag=     6.0000
       N       E                     dE             d eps       ncg     rms          rms(c)
DAV:   1    -0.228531315506E+04   -0.43829E-05   -0.78785E-05  4848   0.110E-02    0.149E-02
RMM:   2    -0.228531316932E+04   -0.14259E-04   -0.24952E-05  2541   0.303E-03    0.553E-02
RMM:   3    -0.228531315401E+04    0.15311E-04   -0.90758E-06  2297   0.208E-03    0.291E-03
RMM:   4    -0.228531315389E+04    0.11816E-06   -0.12652E-06  2108   0.942E-04
 569 F= -.23054331E+04 E0= -.23054331E+04  d E =-.156614E-04  mag=     6.0000
       N       E                     dE             d eps       ncg     rms          rms(c)
DAV:   1    -0.228531316381E+04   -0.98036E-05   -0.19252E-03  4320   0.482E-02    0.111E-02
RMM:   2    -0.228531316768E+04   -0.38667E-05   -0.42406E-05  3183   0.740E-03
 570 F= -.23054331E+04 E0= -.23054331E+04  d E =-.145019E-04  mag=     6.0000
       N       E                     dE             d eps       ncg     rms          rms(c)
DAV:   1    -0.228531316933E+04   -0.55178E-05   -0.10048E-04  4920   0.121E-02    0.144E-02
RMM:   2    -0.228531318262E+04   -0.13286E-04   -0.24130E-05  2534   0.329E-03    0.532E-02
RMM:   3    -0.228531316841E+04    0.14204E-04   -0.85788E-06  2280   0.225E-03    0.284E-03
RMM:   4    -0.228531316826E+04    0.15562E-06   -0.11775E-06  2070   0.962E-04
 571 F= -.23054331E+04 E0= -.23054331E+04  d E =-.152246E-04  mag=     6.0000
       N       E                     dE             d eps       ncg     rms          rms(c)
DAV:   1    -0.228531316744E+04    0.97512E-06   -0.32361E-04  4088   0.199E-02    0.515E-03
RMM:   2    -0.228531316845E+04   -0.10151E-05   -0.76986E-06  2236   0.367E-03
 572 F= -.23054331E+04 E0= -.23054331E+04  d E =-.157105E-04  mag=     6.0000
       N       E                     dE             d eps       ncg     rms          rms(c)
DAV:   1    -0.228531317531E+04   -0.78711E-05   -0.24108E-03  4352   0.543E-02    0.115E-02
RMM:   2    -0.228531318039E+04   -0.50753E-05   -0.54201E-05  3401   0.997E-03
 573 F= -.23054331E+04 E0= -.23054331E+04  d E =-.157144E-04  mag=     6.0000
       N       E                     dE             d eps       ncg     rms          rms(c)
DAV:   1    -0.228531318124E+04   -0.59324E-05   -0.10422E-04  4984   0.127E-02    0.128E-02
RMM:   2    -0.228531319072E+04   -0.94742E-05   -0.18871E-05  2504   0.335E-03
 574 F= -.23054331E+04 E0= -.23054331E+04  d E =-.267213E-04  mag=     6.0000
       N       E                     dE             d eps       ncg     rms          rms(c)
DAV:   1    -0.228531318487E+04   -0.36297E-05   -0.17185E-03  4352   0.464E-02    0.104E-02
RMM:   2    -0.228531318807E+04   -0.31960E-05   -0.40550E-05  3134   0.817E-03
 575 F= -.23054331E+04 E0= -.23054331E+04  d E =-.843203E-05  mag=     6.0000
       N       E                     dE             d eps       ncg     rms          rms(c)
DAV:   1    -0.228531318793E+04   -0.30587E-05   -0.90092E-05  4736   0.117E-02    0.152E-02
RMM:   2    -0.228531320269E+04   -0.14761E-04   -0.26869E-05  2579   0.328E-03    0.560E-02
RMM:   3    -0.228531318700E+04    0.15696E-04   -0.94361E-06  2303   0.221E-03    0.316E-03
RMM:   4    -0.228531318687E+04    0.13073E-06   -0.12870E-06  2063   0.990E-04
 576 F= -.23054331E+04 E0= -.23054331E+04  d E =-.958692E-05  mag=     6.0000
       N       E                     dE             d eps       ncg     rms          rms(c)
DAV:   1    -0.228531318153E+04    0.54626E-05   -0.29489E-04  4080   0.190E-02    0.493E-03
RMM:   2    -0.228531318248E+04   -0.94998E-06   -0.73829E-06  2246   0.362E-03
 577 F= -.23054331E+04 E0= -.23054331E+04  d E =-.991720E-05  mag=     6.0000
       N       E                     dE             d eps       ncg     rms          rms(c)
DAV:   1    -0.228531318464E+04   -0.31082E-05   -0.16155E-03  4336   0.445E-02    0.978E-03
RMM:   2    -0.228531318807E+04   -0.34314E-05   -0.36637E-05  3146   0.857E-03
 578 F= -.23054331E+04 E0= -.23054331E+04  d E =-.129123E-04  mag=     6.0000
       N       E                     dE             d eps       ncg     rms          rms(c)
DAV:   1    -0.228531318737E+04   -0.27283E-05   -0.25335E-04  4496   0.186E-02    0.113E-02
RMM:   2    -0.228531319444E+04   -0.70690E-05   -0.19417E-05  2627   0.477E-03
 579 F= -.23054332E+04 E0= -.23054331E+04  d E =-.220827E-04  mag=     6.0000
       N       E                     dE             d eps       ncg     rms          rms(c)
DAV:   1    -0.228531319699E+04   -0.96205E-05   -0.11621E-03  4336   0.384E-02    0.900E-03
RMM:   2    -0.228531319920E+04   -0.22045E-05   -0.30317E-05  2943   0.799E-03
 580 F= -.23054332E+04 E0= -.23054331E+04  d E =-.762375E-05  mag=     6.0000
       N       E                     dE             d eps       ncg     rms          rms(c)
DAV:   1    -0.228531320074E+04   -0.37480E-05   -0.16080E-04  5024   0.149E-02    0.108E-02
RMM:   2    -0.228531320833E+04   -0.75879E-05   -0.16954E-05  2432   0.395E-03
 581 F= -.23054332E+04 E0= -.23054332E+04  d E =-.178369E-04  mag=     6.0000
       N       E                     dE             d eps       ncg     rms          rms(c)
DAV:   1    -0.228531321018E+04   -0.94432E-05   -0.97471E-04  4312   0.352E-02    0.864E-03
RMM:   2    -0.228531321204E+04   -0.18579E-05   -0.24902E-05  2658   0.713E-03
 582 F= -.23054332E+04 E0= -.23054332E+04  d E =-.352211E-05  mag=     6.0000
       N       E                     dE             d eps       ncg     rms          rms(c)
DAV:   1    -0.228531321346E+04   -0.32813E-05   -0.57839E-05  4656   0.921E-03    0.133E-02
RMM:   2    -0.228531322459E+04   -0.11123E-04   -0.20083E-05  2490   0.295E-03    0.488E-02
RMM:   3    -0.228531321271E+04    0.11878E-04   -0.72107E-06  2163   0.192E-03    0.276E-03
RMM:   4    -0.228531321257E+04    0.14022E-06   -0.93359E-07  1987   0.927E-04
 583 F= -.23054332E+04 E0= -.23054332E+04  d E =-.400883E-05  mag=     6.0000
       N       E                     dE             d eps       ncg     rms          rms(c)
DAV:   1    -0.228531321873E+04   -0.60251E-05   -0.74330E-04  4256   0.301E-02    0.692E-03
RMM:   2    -0.228531322026E+04   -0.15270E-05   -0.16454E-05  2335   0.495E-03
 584 F= -.23054332E+04 E0= -.23054332E+04  d E =-.956145E-05  mag=     6.0000
       N       E                     dE             d eps       ncg     rms          rms(c)
DAV:   1    -0.228531322093E+04   -0.21971E-05   -0.66404E-05  4560   0.976E-03    0.842E-03
RMM:   2    -0.228531322509E+04   -0.41570E-05   -0.88918E-06  2322   0.267E-03
 585 F= -.23054332E+04 E0= -.23054332E+04  d E =-.149074E-04  mag=     6.0000
       N       E                     dE             d eps       ncg     rms          rms(c)
DAV:   1    -0.228531322530E+04   -0.43700E-05   -0.56211E-04  4288   0.267E-02    0.625E-03
RMM:   2    -0.228531322644E+04   -0.11346E-05   -0.14998E-05  2242   0.526E-03
 586 F= -.23054332E+04 E0= -.23054332E+04  d E =-.412312E-05  mag=     6.0000
       N       E                     dE             d eps       ncg     rms          rms(c)
DAV:   1    -0.228531322665E+04   -0.13540E-05   -0.32661E-05  3352   0.713E-03    0.947E-03
RMM:   2    -0.228531323253E+04   -0.58764E-05   -0.11289E-05  2340   0.321E-03
 587 F= -.23054332E+04 E0= -.23054332E+04  d E =-.108432E-04  mag=     6.0000
       N       E                     dE             d eps       ncg     rms          rms(c)
DAV:   1    -0.228531322575E+04    0.90720E-06   -0.47380E-04  4192   0.244E-02    0.567E-03
RMM:   2    -0.228531322652E+04   -0.77550E-06   -0.10972E-05  2306   0.456E-03
 588 F= -.23054332E+04 E0= -.23054332E+04  d E =-.920075E-06  mag=     6.0000
       N       E                     dE             d eps       ncg     rms          rms(c)
DAV:   1    -0.228531322516E+04    0.59046E-06   -0.23862E-05  3632   0.639E-03    0.215E-03
RMM:   2    -0.228531322536E+04   -0.20643E-06   -0.23865E-06  2185   0.284E-03
 589 F= -.23054332E+04 E0= -.23054332E+04  d E =-.145314E-05  mag=     6.0000
       N       E                     dE             d eps       ncg     rms          rms(c)
DAV:   1    -0.228531322759E+04   -0.24371E-05   -0.34693E-04  4120   0.208E-02    0.498E-03
RMM:   2    -0.228531322818E+04   -0.58228E-06   -0.79341E-06  2230   0.407E-03
 590 F= -.23054332E+04 E0= -.23054332E+04  d E =-.660571E-05  mag=     6.0000
       N       E                     dE             d eps       ncg     rms          rms(c)
DAV:   1    -0.228531322797E+04   -0.37966E-06   -0.42523E-05  3904   0.800E-03    0.657E-03
RMM:   2    -0.228531323039E+04   -0.24185E-05   -0.55685E-06  2244   0.255E-03
 591 F= -.23054332E+04 E0= -.23054332E+04  d E =-.101352E-04  mag=     6.0000
       N       E                     dE             d eps       ncg     rms          rms(c)
DAV:   1    -0.228531323225E+04   -0.42797E-05   -0.35899E-04  4200   0.214E-02    0.511E-03
RMM:   2    -0.228531323289E+04   -0.63336E-06   -0.90385E-06  2230   0.441E-03
 592 F= -.23054332E+04 E0= -.23054332E+04  d E =-.402508E-05  mag=     6.0000
       N       E                     dE             d eps       ncg     rms          rms(c)
DAV:   1    -0.228531323273E+04   -0.47940E-06   -0.80695E-06  2360   0.447E-03    0.164E-03
RMM:   2    -0.228531323294E+04   -0.20620E-06   -0.21529E-06  2178   0.318E-03
 593 F= -.23054332E+04 E0= -.23054332E+04  d E =-.432207E-05  mag=     6.0000
       N       E                     dE             d eps       ncg     rms          rms(c)
DAV:   1    -0.228531323918E+04   -0.64433E-05   -0.27589E-04  4064   0.185E-02    0.424E-03
RMM:   2    -0.228531323967E+04   -0.49447E-06   -0.62999E-06  2233   0.359E-03
 594 F= -.23054332E+04 E0= -.23054332E+04  d E =-.537583E-05  mag=     6.0000
       N       E                     dE             d eps       ncg     rms          rms(c)
DAV:   1    -0.228531324022E+04   -0.10417E-05   -0.17561E-05  2536   0.562E-03    0.503E-03
RMM:   2    -0.228531324171E+04   -0.14919E-05   -0.40905E-06  2213   0.354E-03
 595 F= -.23054332E+04 E0= -.23054332E+04  d E =-.707194E-05  mag=     6.0000
       N       E                     dE             d eps       ncg     rms          rms(c)
DAV:   1    -0.228531324433E+04   -0.41094E-05   -0.29957E-04  4064   0.194E-02    0.447E-03
RMM:   2    -0.228531324477E+04   -0.44415E-06   -0.64533E-06  2214   0.365E-03
 596 F= -.23054332E+04 E0= -.23054332E+04  d E =-.334783E-05  mag=     6.0000
