       N       E                     dE             d eps       ncg     rms          rms(c)
DAV:   1     0.131231175564E+05    0.13123E+05   -0.84097E+05  4520   0.145E+03
DAV:   2    -0.997107607440E+03   -0.14120E+05   -0.13496E+05  4928   0.331E+02
DAV:   3    -0.247355738711E+04   -0.14764E+04   -0.14577E+04  5512   0.115E+02
DAV:   4    -0.251977795432E+04   -0.46221E+02   -0.45971E+02  6704   0.295E+01
DAV:   5    -0.252065575713E+04   -0.87780E+00   -0.87583E+00  6280   0.350E+00    0.170E+02
RMM:   6    -0.149364542712E+04    0.10270E+04   -0.19585E+03  4456   0.383E+01    0.726E+01
RMM:   7    -0.166232730429E+04   -0.16868E+03   -0.29027E+02  5260   0.144E+01    0.528E+01
RMM:   8    -0.171661593819E+04   -0.54289E+02   -0.75611E+01  5283   0.821E+00    0.468E+01
RMM:   9    -0.177126701222E+04   -0.54651E+02   -0.57707E+01  5017   0.728E+00    0.335E+01
RMM:  10    -0.191329340878E+04   -0.14203E+03   -0.68456E+01  5382   0.803E+00    0.274E+01
RMM:  11    -0.197698696994E+04   -0.63694E+02   -0.27211E+01  5438   0.457E+00    0.222E+01
RMM:  12    -0.204618085687E+04   -0.69194E+02   -0.25630E+01  5031   0.405E+00    0.167E+01
RMM:  13    -0.212068914240E+04   -0.74508E+02   -0.33435E+01  4956   0.447E+00    0.141E+01
RMM:  14    -0.221466068434E+04   -0.93972E+02   -0.63287E+01  4510   0.602E+00    0.898E+00
RMM:  15    -0.228960255487E+04   -0.74942E+02   -0.71970E+01  4704   0.592E+00    0.486E+00
RMM:  16    -0.230520467388E+04   -0.15602E+02   -0.18035E+01  4708   0.365E+00    0.303E+00
RMM:  17    -0.230959183478E+04   -0.43872E+01   -0.60918E+00  5243   0.146E+00    0.203E+00
RMM:  18    -0.231128306911E+04   -0.16912E+01   -0.11796E+00  5022   0.856E-01    0.348E+00
RMM:  19    -0.231128862579E+04   -0.55567E-02   -0.14930E-01  5637   0.325E-01    0.343E+00
RMM:  20    -0.231134894246E+04   -0.60317E-01   -0.33806E-02  5366   0.119E-01    0.336E+00
RMM:  21    -0.231138211823E+04   -0.33176E-01   -0.58329E-02  4936   0.109E-01    0.312E+00
RMM:  22    -0.231150341025E+04   -0.12129E+00   -0.11154E-01  4596   0.162E-01    0.281E+00
RMM:  23    -0.231175205182E+04   -0.24864E+00   -0.33472E-01  4642   0.329E-01    0.353E+00
RMM:  24    -0.231162474672E+04    0.12731E+00   -0.77059E-02  5251   0.222E-01    0.422E+00
RMM:  25    -0.231206739687E+04   -0.44265E+00   -0.14629E-01  4618   0.217E-01    0.325E+00
RMM:  26    -0.231238392108E+04   -0.31652E+00   -0.13194E-01  4736   0.224E-01    0.380E+00
RMM:  27    -0.231242506434E+04   -0.41143E-01   -0.37126E-02  5042   0.136E-01    0.362E+00
RMM:  28    -0.231241786138E+04    0.72030E-02   -0.42336E-02  4702   0.990E-02    0.366E+00
RMM:  29    -0.231241214902E+04    0.57124E-02   -0.46161E-03  5023   0.533E-02    0.347E+00
RMM:  30    -0.231243122662E+04   -0.19078E-01   -0.72319E-03  4762   0.480E-02    0.344E+00
RMM:  31    -0.231245133255E+04   -0.20106E-01   -0.54061E-02  4551   0.126E-01    0.309E+00
RMM:  32    -0.231242468992E+04    0.26643E-01   -0.48473E-02  4850   0.131E-01    0.373E+00
RMM:  33    -0.231242402097E+04    0.66896E-03   -0.39729E-03  5436   0.421E-02    0.374E+00
RMM:  34    -0.231242756073E+04   -0.35398E-02   -0.46073E-04  4567   0.105E-02    0.372E+00
RMM:  35    -0.231244505002E+04   -0.17489E-01   -0.15850E-02  4780   0.571E-02    0.336E+00
RMM:  36    -0.231247628087E+04   -0.31231E-01   -0.69930E-02  4915   0.126E-01    0.304E+00
RMM:  37    -0.231256847225E+04   -0.92191E-01   -0.14055E-01  5252   0.205E-01    0.509E+00
RMM:  38    -0.231263979202E+04   -0.71320E-01   -0.64619E-02  5124   0.145E-01    0.502E+00
RMM:  39    -0.231265107069E+04   -0.11279E-01   -0.10757E-02  5707   0.467E-02    0.488E+00
RMM:  40    -0.231265688568E+04   -0.58150E-02   -0.56996E-03  4965   0.409E-02    0.475E+00
RMM:  41    -0.231270852746E+04   -0.51642E-01   -0.33378E-02  5170   0.872E-02    0.390E+00
RMM:  42    -0.231275559716E+04   -0.47070E-01   -0.38273E-02  4943   0.964E-02    0.299E+00
RMM:  43    -0.231277828257E+04   -0.22685E-01   -0.32948E-02  5452   0.945E-02    0.205E+00
RMM:  44    -0.231280565949E+04   -0.27377E-01   -0.11130E-02  5075   0.602E-02    0.181E+00
RMM:  45    -0.231284139430E+04   -0.35735E-01   -0.23864E-02  4718   0.877E-02    0.121E+00
RMM:  46    -0.231286839418E+04   -0.27000E-01   -0.38954E-02  5120   0.120E-01    0.585E-01
RMM:  47    -0.231287789899E+04   -0.95048E-02   -0.11793E-02  5480   0.736E-02    0.492E-01
RMM:  48    -0.231288618231E+04   -0.82833E-02   -0.78769E-03  5007   0.578E-02    0.340E-01
RMM:  49    -0.231288978122E+04   -0.35989E-02   -0.40903E-03  5032   0.479E-02    0.352E-01
RMM:  50    -0.231289295395E+04   -0.31727E-02   -0.28131E-03  5122   0.324E-02    0.297E-01
RMM:  51    -0.231289414146E+04   -0.11875E-02   -0.75543E-04  4582   0.213E-02    0.278E-01
RMM:  52    -0.231289525351E+04   -0.11120E-02   -0.10024E-03  4724   0.172E-02    0.123E-01
RMM:  53    -0.231289526052E+04   -0.70083E-05   -0.13681E-04  3598   0.107E-02    0.107E-01
RMM:  54    -0.231289545955E+04   -0.19903E-03   -0.10562E-04  3809   0.756E-03    0.930E-02
RMM:  55    -0.231289570537E+04   -0.24583E-03   -0.18894E-04  4077   0.101E-02    0.569E-02
RMM:  56    -0.231289585765E+04   -0.15228E-03   -0.15366E-04  4115   0.955E-03    0.264E-02
RMM:  57    -0.231289589505E+04   -0.37405E-04   -0.23620E-05  2942   0.662E-03    0.237E-02
RMM:  58    -0.231289592614E+04   -0.31082E-04   -0.19248E-05  2938   0.349E-03    0.285E-02
RMM:  59    -0.231289595768E+04   -0.31542E-04   -0.92575E-06  2902   0.324E-03    0.154E-02
RMM:  60    -0.231289596875E+04   -0.11069E-04   -0.52796E-06  2868   0.240E-03    0.942E-03
RMM:  61    -0.231289597342E+04   -0.46765E-05   -0.23115E-06  2527   0.176E-03
   1 F= -.23341873E+04 E0= -.23341873E+04  d E =-.233419E+04  mag=     1.9996
       N       E                     dE             d eps       ncg     rms          rms(c)
DAV:   1    -0.231350694281E+04   -0.61097E+00   -0.12750E+02  4656   0.765E+00    0.329E+00
RMM:   2    -0.231400108603E+04   -0.49414E+00   -0.73513E+00  6097   0.179E+00    0.310E+00
RMM:   3    -0.231405192638E+04   -0.50840E-01   -0.79114E-01  6297   0.595E-01    0.379E+00
RMM:   4    -0.231389148943E+04    0.16044E+00   -0.15734E-01  6108   0.181E-01    0.148E+00
RMM:   5    -0.231389511174E+04   -0.36223E-02   -0.15318E-01  6064   0.167E-01    0.169E+00
RMM:   6    -0.231386453075E+04    0.30581E-01   -0.57822E-02  6160   0.114E-01    0.511E-01
RMM:   7    -0.231386577549E+04   -0.12447E-02   -0.11167E-02  6255   0.455E-02    0.669E-01
RMM:   8    -0.231386041291E+04    0.53626E-02   -0.42135E-03  5927   0.296E-02    0.163E-01
RMM:   9    -0.231386000563E+04    0.40728E-03   -0.17618E-03  5318   0.182E-02    0.818E-02
RMM:  10    -0.231386000824E+04   -0.26159E-05   -0.25141E-04  3923   0.114E-02    0.408E-02
RMM:  11    -0.231386003509E+04   -0.26846E-04   -0.69684E-05  3148   0.592E-03    0.211E-02
RMM:  12    -0.231386007901E+04   -0.43921E-04   -0.30247E-05  2964   0.467E-03    0.123E-02
RMM:  13    -0.231386010913E+04   -0.30120E-04   -0.12781E-05  2914   0.372E-03    0.595E-03
RMM:  14    -0.231386013429E+04   -0.25160E-04   -0.76777E-06  2857   0.272E-03    0.359E-03
RMM:  15    -0.231386014725E+04   -0.12959E-04   -0.42787E-06  2758   0.247E-03    0.210E-03
RMM:  16    -0.231386015170E+04   -0.44540E-05   -0.22437E-06  2532   0.184E-03
   2 F= -.23351530E+04 E0= -.23351530E+04  d E =-.965678E+00  mag=     2.0000
       N       E                     dE             d eps       ncg     rms          rms(c)
DAV:   1    -0.231396832858E+04   -0.10818E+00   -0.12516E+01  4640   0.229E+00    0.969E-01
RMM:   2    -0.231401567143E+04   -0.47343E-01   -0.58851E-01  5415   0.549E-01    0.125E+00
RMM:   3    -0.231400715502E+04    0.85164E-02   -0.61230E-02  6204   0.157E-01    0.992E-01
RMM:   4    -0.231399610974E+04    0.11045E-01   -0.13138E-02  5691   0.559E-02    0.363E-01
RMM:   5    -0.231399651369E+04   -0.40395E-03   -0.90055E-03  5963   0.443E-02    0.494E-01
RMM:   6    -0.231399457832E+04    0.19354E-02   -0.32688E-03  5532   0.277E-02    0.183E-01
RMM:   7    -0.231399422971E+04    0.34860E-03   -0.51016E-04  4428   0.113E-02    0.961E-02
RMM:   8    -0.231399410815E+04    0.12156E-03   -0.20392E-04  3393   0.796E-03    0.417E-02
RMM:   9    -0.231399408388E+04    0.24270E-04   -0.64694E-05  3160   0.534E-03    0.146E-02
RMM:  10    -0.231399408625E+04   -0.23640E-05   -0.13622E-05  2928   0.402E-03
   3 F= -.23352860E+04 E0= -.23352860E+04  d E =-.109867E+01  mag=     2.0000
       N       E                     dE             d eps       ncg     rms          rms(c)
DAV:   1    -0.231402189181E+04   -0.27808E-01   -0.10967E+01  4560   0.299E+00    0.934E-01
RMM:   2    -0.231422744436E+04   -0.20555E+00   -0.20943E+00  6593   0.718E-01    0.125E+00
RMM:   3    -0.231423772388E+04   -0.10280E-01   -0.23754E-01  6355   0.277E-01    0.112E+00
RMM:   4    -0.231422719803E+04    0.10526E-01   -0.23807E-02  6250   0.647E-02    0.437E-01
RMM:   5    -0.231422535528E+04    0.18427E-02   -0.39304E-03  5662   0.279E-02    0.338E-01
RMM:   6    -0.231422481351E+04    0.54177E-03   -0.41256E-03  5675   0.315E-02    0.329E-01
RMM:   7    -0.231422386547E+04    0.94805E-03   -0.19553E-03  5483   0.223E-02    0.132E-01
RMM:   8    -0.231422375668E+04    0.10879E-03   -0.41876E-04  4748   0.119E-02    0.487E-02
RMM:   9    -0.231422371956E+04    0.37113E-04   -0.61257E-05  2996   0.751E-03    0.263E-02
RMM:  10    -0.231422371369E+04    0.58746E-05   -0.64079E-05  3042   0.466E-03
   4 F= -.23355156E+04 E0= -.23355156E+04  d E =-.229677E+00  mag=     2.0000
       N       E                     dE             d eps       ncg     rms          rms(c)
DAV:   1    -0.231267208489E+04    0.15516E+01   -0.98848E+01  4488   0.898E+00    0.292E+00
RMM:   2    -0.231478340856E+04   -0.21113E+01   -0.21115E+01  6639   0.230E+00    0.429E+00
RMM:   3    -0.231472734037E+04    0.56068E-01   -0.22048E+00  6350   0.822E-01    0.318E+00
RMM:   4    -0.231465833806E+04    0.69002E-01   -0.27076E-01  6488   0.202E-01    0.169E+00
RMM:   5    -0.231463394922E+04    0.24389E-01   -0.43206E-02  6186   0.888E-02    0.118E+00
RMM:   6    -0.231463126235E+04    0.26869E-02   -0.28157E-02  6001   0.741E-02    0.115E+00
RMM:   7    -0.231461673567E+04    0.14527E-01   -0.21814E-02  6199   0.694E-02    0.356E-01
RMM:   8    -0.231461682638E+04   -0.90707E-04   -0.93652E-03  5126   0.458E-02    0.223E-01
RMM:   9    -0.231461648128E+04    0.34510E-03   -0.95253E-04  4397   0.291E-02    0.932E-02
RMM:  10    -0.231461654093E+04   -0.59655E-04   -0.52116E-04  4340   0.128E-02    0.294E-02
RMM:  11    -0.231461666273E+04   -0.12180E-03   -0.90277E-05  3297   0.722E-03    0.179E-02
RMM:  12    -0.231461675978E+04   -0.97042E-04   -0.28762E-05  3070   0.490E-03    0.116E-02
RMM:  13    -0.231461681536E+04   -0.55580E-04   -0.11958E-05  2883   0.396E-03    0.872E-03
RMM:  14    -0.231461684649E+04   -0.31129E-04   -0.74506E-06  2847   0.313E-03    0.501E-03
RMM:  15    -0.231461687109E+04   -0.24601E-04   -0.71074E-06  2837   0.278E-03    0.300E-03
RMM:  16    -0.231461687896E+04   -0.78752E-05   -0.31623E-06  2656   0.242E-03
   5 F= -.23359091E+04 E0= -.23359091E+04  d E =-.623097E+00  mag=     2.0000
       N       E                     dE             d eps       ncg     rms          rms(c)
DAV:   1    -0.231434154319E+04    0.27533E+00   -0.16619E+01  4528   0.359E+00    0.112E+00
RMM:   2    -0.231464697780E+04   -0.30543E+00   -0.31736E+00  6606   0.863E-01    0.133E+00
RMM:   3    -0.231467318358E+04   -0.26206E-01   -0.37724E-01  6358   0.325E-01    0.127E+00
RMM:   4    -0.231465850919E+04    0.14674E-01   -0.35461E-02  6122   0.777E-02    0.492E-01
RMM:   5    -0.231465691649E+04    0.15927E-02   -0.57185E-03  5740   0.337E-02    0.458E-01
RMM:   6    -0.231465479237E+04    0.21241E-02   -0.63217E-03  5713   0.391E-02    0.272E-01
RMM:   7    -0.231465506961E+04   -0.27724E-03   -0.34851E-03  5659   0.268E-02    0.309E-01
RMM:   8    -0.231465420977E+04    0.85984E-03   -0.11162E-03  5385   0.172E-02    0.852E-02
RMM:   9    -0.231465411661E+04    0.93157E-04   -0.14568E-04  3103   0.877E-03    0.450E-02
RMM:  10    -0.231465411028E+04    0.63365E-05   -0.12948E-04  3333   0.639E-03    0.140E-02
RMM:  11    -0.231465412727E+04   -0.16991E-04   -0.29534E-05  2957   0.424E-03    0.670E-03
RMM:  12    -0.231465413940E+04   -0.12137E-04   -0.56346E-06  2824   0.262E-03    0.411E-03
RMM:  13    -0.231465414696E+04   -0.75518E-05   -0.25793E-06  2742   0.213E-03
   6 F= -.23359467E+04 E0= -.23359467E+04  d E =-.660693E+00  mag=     2.0000
       N       E                     dE             d eps       ncg     rms          rms(c)
DAV:   1    -0.231446708553E+04    0.18705E+00   -0.23608E+01  4508   0.494E+00    0.185E+00
RMM:   2    -0.231480118659E+04   -0.33410E+00   -0.37086E+00  6352   0.123E+00    0.107E+00
RMM:   3    -0.231482630875E+04   -0.25122E-01   -0.38417E-01  6021   0.458E-01    0.119E+00
RMM:   4    -0.231481422978E+04    0.12079E-01   -0.42728E-02  6459   0.116E-01    0.721E-01
RMM:   5    -0.231481224568E+04    0.19841E-02   -0.15554E-02  5987   0.718E-02    0.660E-01
RMM:   6    -0.231480735637E+04    0.48893E-02   -0.98731E-03  5965   0.570E-02    0.277E-01
RMM:   7    -0.231480653240E+04    0.82397E-03   -0.21885E-03  5757   0.336E-02    0.207E-01
RMM:   8    -0.231480629205E+04    0.24035E-03   -0.93991E-04  5061   0.178E-02    0.155E-01
RMM:   9    -0.231480593786E+04    0.35419E-03   -0.25374E-04  4585   0.111E-02    0.353E-02
RMM:  10    -0.231480585346E+04    0.84395E-04   -0.13475E-04  4388   0.860E-03    0.179E-02
RMM:  11    -0.231480582488E+04    0.28587E-04   -0.60534E-05  3794   0.726E-03    0.106E-02
RMM:  12    -0.231480581887E+04    0.60027E-05   -0.27460E-05  3146   0.574E-03
   7 F= -.23360953E+04 E0= -.23360953E+04  d E =-.148670E+00  mag=     2.0000
       N       E                     dE             d eps       ncg     rms          rms(c)
DAV:   1    -0.231480539566E+04    0.42922E-03   -0.42622E-02  5432   0.214E-01    0.777E-02
RMM:   2    -0.231480598529E+04   -0.58963E-03   -0.65724E-03  6424   0.525E-02    0.400E-02
RMM:   3    -0.231480603079E+04   -0.45497E-04   -0.67016E-04  3533   0.195E-02    0.450E-02
RMM:   4    -0.231480601879E+04    0.11999E-04   -0.72157E-05  2950   0.595E-03    0.299E-02
RMM:   5    -0.231480601570E+04    0.30894E-05   -0.27998E-05  2905   0.428E-03
   8 F= -.23360956E+04 E0= -.23360956E+04  d E =-.148989E+00  mag=     2.0000
       N       E                     dE             d eps       ncg     rms          rms(c)
DAV:   1    -0.231455553830E+04    0.25048E+00   -0.19544E+01  4528   0.442E+00    0.169E+00
RMM:   2    -0.231491269460E+04   -0.35716E+00   -0.38395E+00  6321   0.114E+00    0.112E+00
RMM:   3    -0.231495596522E+04   -0.43271E-01   -0.43767E-01  6100   0.453E-01    0.168E+00
RMM:   4    -0.231492734915E+04    0.28616E-01   -0.41513E-02  6467   0.109E-01    0.488E-01
RMM:   5    -0.231492529012E+04    0.20590E-02   -0.14024E-02  5771   0.642E-02    0.461E-01
RMM:   6    -0.231492463313E+04    0.65699E-03   -0.61282E-03  5880   0.446E-02    0.410E-01
RMM:   7    -0.231492263492E+04    0.19982E-02   -0.18953E-03  5588   0.275E-02    0.103E-01
RMM:   8    -0.231492263292E+04    0.20034E-05   -0.63334E-04  4926   0.173E-02    0.116E-01
RMM:   9    -0.231492247534E+04    0.15757E-03   -0.23002E-04  3983   0.911E-03    0.366E-02
RMM:  10    -0.231492247408E+04    0.12601E-05   -0.88829E-05  3660   0.682E-03
   9 F= -.23362077E+04 E0= -.23362077E+04  d E =-.112102E+00  mag=     2.0000
       N       E                     dE             d eps       ncg     rms          rms(c)
DAV:   1    -0.231492154665E+04    0.92869E-03   -0.90591E-02  5496   0.303E-01    0.113E-01
RMM:   2    -0.231492319017E+04   -0.16435E-02   -0.17583E-02  6427   0.777E-02    0.782E-02
RMM:   3    -0.231492339264E+04   -0.20247E-03   -0.19939E-03  4404   0.312E-02    0.112E-01
RMM:   4    -0.231492325788E+04    0.13476E-03   -0.19413E-04  2990   0.888E-03    0.327E-02
RMM:   5    -0.231492326217E+04   -0.42880E-05   -0.82818E-05  3403   0.641E-03
  10 F= -.23362082E+04 E0= -.23362082E+04  d E =-.112601E+00  mag=     2.0000
       N       E                     dE             d eps       ncg     rms          rms(c)
DAV:   1    -0.231478765943E+04    0.13560E+00   -0.13878E+01  4512   0.353E+00    0.123E+00
RMM:   2    -0.231504037747E+04   -0.25272E+00   -0.26626E+00  6538   0.873E-01    0.891E-01
RMM:   3    -0.231506799496E+04   -0.27617E-01   -0.30341E-01  6266   0.326E-01    0.116E+00
RMM:   4    -0.231505565896E+04    0.12336E-01   -0.28714E-02  6266   0.799E-02    0.460E-01
RMM:   5    -0.231505558050E+04    0.78458E-04   -0.71038E-03  5933   0.391E-02    0.489E-01
RMM:   6    -0.231505339070E+04    0.21898E-02   -0.47496E-03  5870   0.351E-02    0.217E-01
RMM:   7    -0.231505376072E+04   -0.37002E-03   -0.21714E-03  5654   0.259E-02    0.268E-01
RMM:   8    -0.231505291365E+04    0.84707E-03   -0.62971E-04  4855   0.146E-02    0.447E-02
RMM:   9    -0.231505288728E+04    0.26373E-04   -0.89525E-05  3245   0.613E-03    0.277E-02
RMM:  10    -0.231505288047E+04    0.68062E-05   -0.39765E-05  2967   0.511E-03
  11 F= -.23363336E+04 E0= -.23363336E+04  d E =-.125341E+00  mag=     2.0000
       N       E                     dE             d eps       ncg     rms          rms(c)
DAV:   1    -0.231479642665E+04    0.25646E+00   -0.16244E+01  4488   0.379E+00    0.133E+00
RMM:   2    -0.231509544811E+04   -0.29902E+00   -0.31352E+00  6537   0.942E-01    0.103E+00
RMM:   3    -0.231512734503E+04   -0.31897E-01   -0.35897E-01  6285   0.351E-01    0.133E+00
RMM:   4    -0.231511133407E+04    0.16011E-01   -0.33867E-02  6248   0.856E-02    0.495E-01
RMM:   5    -0.231511107106E+04    0.26301E-03   -0.83984E-03  5952   0.415E-02    0.507E-01
RMM:   6    -0.231510861779E+04    0.24533E-02   -0.54683E-03  5829   0.382E-02    0.234E-01
RMM:   7    -0.231510902405E+04   -0.40627E-03   -0.25837E-03  5653   0.284E-02    0.287E-01
RMM:   8    -0.231510803815E+04    0.98590E-03   -0.73807E-04  5079   0.156E-02    0.461E-02
RMM:   9    -0.231510800616E+04    0.31994E-04   -0.10911E-04  3325   0.668E-03    0.314E-02
RMM:  10    -0.231510799397E+04    0.12189E-04   -0.49412E-05  3023   0.562E-03    0.117E-02
RMM:  11    -0.231510799578E+04   -0.18060E-05   -0.17859E-05  2954   0.461E-03
  12 F= -.23363842E+04 E0= -.23363842E+04  d E =-.175944E+00  mag=     2.0000
       N       E                     dE             d eps       ncg     rms          rms(c)
DAV:   1    -0.231481366746E+04    0.29433E+00   -0.20142E+01  4488   0.434E+00    0.154E+00
RMM:   2    -0.231520611921E+04   -0.39245E+00   -0.42176E+00  6474   0.106E+00    0.100E+00
RMM:   3    -0.231524618749E+04   -0.40068E-01   -0.47006E-01  6182   0.413E-01    0.120E+00
RMM:   4    -0.231523286668E+04    0.13321E-01   -0.43551E-02  6629   0.965E-02    0.561E-01
RMM:   5    -0.231523189396E+04    0.97272E-03   -0.91467E-03  6019   0.439E-02    0.509E-01
RMM:   6    -0.231522960454E+04    0.22894E-02   -0.69002E-03  5932   0.433E-02    0.325E-01
RMM:   7    -0.231522996069E+04   -0.35615E-03   -0.37384E-03  5929   0.305E-02    0.389E-01
RMM:   8    -0.231522837514E+04    0.15855E-02   -0.15259E-03  5447   0.195E-02    0.856E-02
RMM:   9    -0.231522826382E+04    0.11132E-03   -0.21988E-04  3666   0.870E-03    0.425E-02
RMM:  10    -0.231522822978E+04    0.34039E-04   -0.12343E-04  3202   0.803E-03    0.152E-02
RMM:  11    -0.231522822796E+04    0.18211E-05   -0.33159E-05  2972   0.497E-03
  13 F= -.23365014E+04 E0= -.23365014E+04  d E =-.117202E+00  mag=     2.0000
       N       E                     dE             d eps       ncg     rms          rms(c)
DAV:   1    -0.231511376002E+04    0.11447E+00   -0.66271E+00  4560   0.247E+00    0.878E-01
RMM:   2    -0.231524094235E+04   -0.12718E+00   -0.13622E+00  6468   0.595E-01    0.608E-01
RMM:   3    -0.231525446666E+04   -0.13524E-01   -0.14540E-01  6172   0.229E-01    0.778E-01
RMM:   4    -0.231524884116E+04    0.56255E-02   -0.14298E-02  6360   0.548E-02    0.309E-01
RMM:   5    -0.231524882042E+04    0.20736E-04   -0.32633E-03  5753   0.264E-02    0.322E-01
RMM:   6    -0.231524784988E+04    0.97054E-03   -0.23305E-03  5689   0.255E-02    0.197E-01
RMM:   7    -0.231524787410E+04   -0.24222E-04   -0.12937E-03  5433   0.175E-02    0.202E-01
RMM:   8    -0.231524741492E+04    0.45918E-03   -0.44673E-04  4642   0.116E-02    0.340E-02
RMM:   9    -0.231524739116E+04    0.23763E-04   -0.60250E-05  2994   0.593E-03    0.186E-02
RMM:  10    -0.231524738563E+04    0.55304E-05   -0.30176E-05  2968   0.430E-03
  14 F= -.23365189E+04 E0= -.23365189E+04  d E =-.134754E+00  mag=     2.0000
       N       E                     dE             d eps       ncg     rms          rms(c)
DAV:   1    -0.231494189652E+04    0.30549E+00   -0.21392E+01  4488   0.440E+00    0.163E+00
RMM:   2    -0.231535112252E+04   -0.40923E+00   -0.42935E+00  6441   0.106E+00    0.153E+00
RMM:   3    -0.231539783811E+04   -0.46716E-01   -0.50660E-01  6244   0.430E-01    0.168E+00
RMM:   4    -0.231536652149E+04    0.31317E-01   -0.46566E-02  6339   0.107E-01    0.563E-01
RMM:   5    -0.231536746372E+04   -0.94223E-03   -0.12493E-02  6064   0.535E-02    0.683E-01
RMM:   6    -0.231536343954E+04    0.40242E-02   -0.84430E-03  5868   0.474E-02    0.422E-01
RMM:   7    -0.231536281958E+04    0.61996E-03   -0.55594E-03  5962   0.362E-02    0.324E-01
RMM:   8    -0.231536160554E+04    0.12140E-02   -0.13290E-03  5342   0.200E-02    0.667E-02
RMM:   9    -0.231536152612E+04    0.79422E-04   -0.20607E-04  3867   0.102E-02    0.327E-02
RMM:  10    -0.231536150915E+04    0.16968E-04   -0.98155E-05  3458   0.749E-03    0.141E-02
RMM:  11    -0.231536151143E+04   -0.22852E-05   -0.22861E-05  2966   0.506E-03
  15 F= -.23366307E+04 E0= -.23366307E+04  d E =-.111782E+00  mag=     2.0000
       N       E                     dE             d eps       ncg     rms          rms(c)
DAV:   1    -0.231528567696E+04    0.75832E-01   -0.46531E+00  4560   0.205E+00    0.758E-01
RMM:   2    -0.231537436804E+04   -0.88691E-01   -0.91457E-01  6446   0.488E-01    0.781E-01
RMM:   3    -0.231538203119E+04   -0.76631E-02   -0.10223E-01  6216   0.196E-01    0.757E-01
RMM:   4    -0.231537568091E+04    0.63503E-02   -0.96201E-03  5969   0.489E-02    0.245E-01
RMM:   5    -0.231537627874E+04   -0.59783E-03   -0.28442E-03  5697   0.267E-02    0.354E-01
RMM:   6    -0.231537499193E+04    0.12868E-02   -0.19048E-03  5563   0.233E-02    0.158E-01
RMM:   7    -0.231537496544E+04    0.26492E-04   -0.94964E-04  5029   0.167E-02    0.132E-01
RMM:   8    -0.231537474656E+04    0.21888E-03   -0.22159E-04  3599   0.865E-03    0.249E-02
RMM:   9    -0.231537473492E+04    0.11644E-04   -0.36919E-05  2954   0.525E-03    0.135E-02
RMM:  10    -0.231537473406E+04    0.86008E-06   -0.19646E-05  2943   0.384E-03
  16 F= -.23366430E+04 E0= -.23366430E+04  d E =-.124039E+00  mag=     2.0000
       N       E                     dE             d eps       ncg     rms          rms(c)
DAV:   1    -0.231519190748E+04    0.18283E+00   -0.19972E+01  4488   0.405E+00    0.144E+00
RMM:   2    -0.231550698896E+04   -0.31508E+00   -0.31381E+00  6504   0.941E-01    0.171E+00
RMM:   3    -0.231552299558E+04   -0.16007E-01   -0.37048E-01  6371   0.361E-01    0.126E+00
RMM:   4    -0.231550365635E+04    0.19339E-01   -0.33954E-02  6047   0.889E-02    0.461E-01
RMM:   5    -0.231550695937E+04   -0.33030E-02   -0.99743E-03  6080   0.489E-02    0.735E-01
RMM:   6    -0.231550151070E+04    0.54487E-02   -0.67313E-03  5774   0.422E-02    0.298E-01
RMM:   7    -0.231550143882E+04    0.71876E-04   -0.33540E-03  5603   0.290E-02    0.237E-01
RMM:   8    -0.231550077194E+04    0.66688E-03   -0.68499E-04  4799   0.139E-02    0.491E-02
RMM:   9    -0.231550075060E+04    0.21339E-04   -0.12739E-04  3319   0.734E-03    0.276E-02
RMM:  10    -0.231550074930E+04    0.13000E-05   -0.51076E-05  3026   0.602E-03
  17 F= -.23367655E+04 E0= -.23367655E+04  d E =-.122536E+00  mag=     2.0000
       N       E                     dE             d eps       ncg     rms          rms(c)
DAV:   1    -0.231529259601E+04    0.20815E+00   -0.15830E+01  4492   0.362E+00    0.129E+00
RMM:   2    -0.231554652232E+04   -0.25393E+00   -0.24991E+00  6488   0.852E-01    0.161E+00
RMM:   3    -0.231555477433E+04   -0.82520E-02   -0.29379E-01  6357   0.324E-01    0.109E+00
RMM:   4    -0.231554042269E+04    0.14352E-01   -0.27104E-02  6000   0.789E-02    0.409E-01
RMM:   5    -0.231554316944E+04   -0.27467E-02   -0.81104E-03  6040   0.444E-02    0.662E-01
RMM:   6    -0.231553878310E+04    0.43863E-02   -0.54820E-03  5715   0.385E-02    0.276E-01
RMM:   7    -0.231553857644E+04    0.20666E-03   -0.26668E-03  5465   0.260E-02    0.196E-01
RMM:   8    -0.231553811771E+04    0.45873E-03   -0.47171E-04  4485   0.120E-02    0.410E-02
RMM:   9    -0.231553810437E+04    0.13334E-04   -0.95739E-05  3202   0.675E-03    0.247E-02
RMM:  10    -0.231553810495E+04   -0.57853E-06   -0.44250E-05  3011   0.568E-03
  18 F= -.23368002E+04 E0= -.23368002E+04  d E =-.157210E+00  mag=     2.0000
       N       E                     dE             d eps       ncg     rms          rms(c)
DAV:   1    -0.231529153585E+04    0.24657E+00   -0.24302E+01  4488   0.480E+00    0.171E+00
RMM:   2    -0.231564747309E+04   -0.35594E+00   -0.35822E+00  6360   0.112E+00    0.174E+00
RMM:   3    -0.231566886538E+04   -0.21392E-01   -0.40782E-01  6220   0.434E-01    0.165E+00
RMM:   4    -0.231563937591E+04    0.29489E-01   -0.40368E-02  6235   0.112E-01    0.638E-01
RMM:   5    -0.231564177397E+04   -0.23981E-02   -0.15007E-02  5959   0.589E-02    0.846E-01
RMM:   6    -0.231563412436E+04    0.76496E-02   -0.98095E-03  5487   0.567E-02    0.193E-01
RMM:   7    -0.231563456656E+04   -0.44220E-03   -0.33768E-03  5464   0.370E-02    0.259E-01
RMM:   8    -0.231563363057E+04    0.93599E-03   -0.10498E-03  5301   0.167E-02    0.537E-02
RMM:   9    -0.231563356282E+04    0.67750E-04   -0.21653E-04  4153   0.899E-03    0.323E-02
RMM:  10    -0.231563355882E+04    0.39966E-05   -0.90967E-05  3911   0.795E-03
  19 F= -.23368923E+04 E0= -.23368923E+04  d E =-.921566E-01  mag=     2.0000
       N       E                     dE             d eps       ncg     rms          rms(c)
DAV:   1    -0.231563123275E+04    0.23301E-02   -0.24467E-01  5168   0.483E-01    0.169E-01
RMM:   2    -0.231563470686E+04   -0.34741E-02   -0.35587E-02  6461   0.115E-01    0.158E-01
RMM:   3    -0.231563501907E+04   -0.31221E-03   -0.39836E-03  5538   0.432E-02    0.169E-01
RMM:   4    -0.231563470938E+04    0.30969E-03   -0.42434E-04  4142   0.119E-02    0.667E-02
RMM:   5    -0.231563472844E+04   -0.19061E-04   -0.15481E-04  2995   0.759E-03    0.841E-02
RMM:   6    -0.231563465891E+04    0.69534E-04   -0.13781E-04  3984   0.838E-03    0.232E-02
RMM:   7    -0.231563466337E+04   -0.44643E-05   -0.40144E-05  2949   0.606E-03
  20 F= -.23368932E+04 E0= -.23368932E+04  d E =-.929655E-01  mag=     2.0000
       N       E                     dE             d eps       ncg     rms          rms(c)
DAV:   1    -0.231541483551E+04    0.21982E+00   -0.14414E+01  4492   0.378E+00    0.138E+00
RMM:   2    -0.231569310965E+04   -0.27827E+00   -0.27803E+00  6466   0.937E-01    0.161E+00
RMM:   3    -0.231570923318E+04   -0.16124E-01   -0.32568E-01  6280   0.354E-01    0.154E+00
RMM:   4    -0.231568526615E+04    0.23967E-01   -0.29342E-02  6041   0.885E-02    0.478E-01
RMM:   5    -0.231568590725E+04   -0.64110E-03   -0.99680E-03  6012   0.494E-02    0.603E-01
RMM:   6    -0.231568212454E+04    0.37827E-02   -0.77262E-03  5665   0.472E-02    0.243E-01
RMM:   7    -0.231568224769E+04   -0.12316E-03   -0.30510E-03  5547   0.315E-02    0.245E-01
RMM:   8    -0.231568143790E+04    0.80980E-03   -0.70665E-04  5197   0.145E-02    0.533E-02
RMM:   9    -0.231568138300E+04    0.54902E-04   -0.16104E-04  3608   0.821E-03    0.275E-02
RMM:  10    -0.231568136661E+04    0.16390E-04   -0.79226E-05  3611   0.684E-03    0.122E-02
RMM:  11    -0.231568136521E+04    0.14000E-05   -0.16370E-05  2942   0.497E-03
  21 F= -.23369388E+04 E0= -.23369388E+04  d E =-.456970E-01  mag=     2.0000
       N       E                     dE             d eps       ncg     rms          rms(c)
DAV:   1    -0.231568013667E+04    0.12299E-02   -0.79003E-02  5160   0.279E-01    0.103E-01
RMM:   2    -0.231568168492E+04   -0.15483E-02   -0.15258E-02  6482   0.713E-02    0.125E-01
RMM:   3    -0.231568175180E+04   -0.66882E-04   -0.17899E-03  4142   0.273E-02    0.111E-01
RMM:   4    -0.231568163854E+04    0.11327E-03   -0.18608E-04  2982   0.781E-03    0.458E-02
RMM:   5    -0.231568162558E+04    0.12960E-04   -0.54975E-05  2928   0.473E-03    0.372E-02
RMM:   6    -0.231568162184E+04    0.37414E-05   -0.54592E-05  2987   0.511E-03
  22 F= -.23369392E+04 E0= -.23369392E+04  d E =-.460136E-01  mag=     2.0000
       N       E                     dE             d eps       ncg     rms          rms(c)
DAV:   1    -0.231564066149E+04    0.40964E-01   -0.41233E+00  4528   0.210E+00    0.722E-01
RMM:   2    -0.231570385009E+04   -0.63189E-01   -0.63042E-01  6414   0.503E-01    0.772E-01
RMM:   3    -0.231570695055E+04   -0.31005E-02   -0.65223E-02  6229   0.175E-01    0.796E-01
RMM:   4    -0.231570098300E+04    0.59675E-02   -0.81618E-03  6091   0.480E-02    0.355E-01
RMM:   5    -0.231569983663E+04    0.11464E-02   -0.24817E-03  5661   0.266E-02    0.215E-01
RMM:   6    -0.231569962525E+04    0.21138E-03   -0.20602E-03  5356   0.277E-02    0.197E-01
RMM:   7    -0.231569922252E+04    0.40273E-03   -0.77709E-04  4794   0.196E-02    0.817E-02
RMM:   8    -0.231569912214E+04    0.10039E-03   -0.10167E-04  3745   0.689E-03    0.231E-02
RMM:   9    -0.231569910714E+04    0.14994E-04   -0.28362E-05  2980   0.544E-03    0.130E-02
RMM:  10    -0.231569910107E+04    0.60723E-05   -0.23946E-05  3006   0.431E-03
  23 F= -.23369570E+04 E0= -.23369570E+04  d E =-.177907E-01  mag=     2.0000
       N       E                     dE             d eps       ncg     rms          rms(c)
DAV:   1    -0.231569896035E+04    0.14680E-03   -0.11692E-02  5488   0.112E-01    0.382E-02
RMM:   2    -0.231569913916E+04   -0.17882E-03   -0.17906E-03  6300   0.283E-02    0.399E-02
RMM:   3    -0.231569914543E+04   -0.62618E-05   -0.18751E-04  2951   0.103E-02    0.398E-02
RMM:   4    -0.231569913140E+04    0.14029E-04   -0.25842E-05  2909   0.382E-03    0.216E-02
RMM:   5    -0.231569912687E+04    0.45242E-05   -0.79888E-06  2824   0.211E-03
  24 F= -.23369570E+04 E0= -.23369570E+04  d E =-.178355E-01  mag=     2.0000
       N       E                     dE             d eps       ncg     rms          rms(c)
DAV:   1    -0.231567427965E+04    0.24852E-01   -0.34021E+00  4528   0.188E+00    0.575E-01
RMM:   2    -0.231571384006E+04   -0.39560E-01   -0.42213E-01  6400   0.416E-01    0.431E-01
RMM:   3    -0.231571682987E+04   -0.29898E-02   -0.39239E-02  6171   0.140E-01    0.459E-01
RMM:   4    -0.231571450869E+04    0.23212E-02   -0.48113E-03  6188   0.389E-02    0.221E-01
RMM:   5    -0.231571449133E+04    0.17353E-04   -0.17391E-03  5577   0.213E-02    0.235E-01
RMM:   6    -0.231571404095E+04    0.45038E-03   -0.12452E-03  5299   0.208E-02    0.149E-01
RMM:   7    -0.231571390148E+04    0.13947E-03   -0.43354E-04  4009   0.149E-02    0.902E-02
RMM:   8    -0.231571379871E+04    0.10277E-03   -0.75203E-05  3127   0.619E-03    0.162E-02
RMM:   9    -0.231571379098E+04    0.77366E-05   -0.18410E-05  2945   0.411E-03
  25 F= -.23369721E+04 E0= -.23369721E+04  d E =-.151163E-01  mag=     2.0000
       N       E                     dE             d eps       ncg     rms          rms(c)
DAV:   1    -0.231571156122E+04    0.22375E-02   -0.24150E-01  4688   0.501E-01    0.153E-01
RMM:   2    -0.231571439004E+04   -0.28288E-02   -0.30014E-02  6427   0.112E-01    0.118E-01
RMM:   3    -0.231571456938E+04   -0.17934E-03   -0.27305E-03  5134   0.367E-02    0.118E-01
RMM:   4    -0.231571441779E+04    0.15158E-03   -0.34351E-04  3688   0.109E-02    0.661E-02
RMM:   5    -0.231571440467E+04    0.13127E-04   -0.11594E-04  2984   0.729E-03    0.620E-02
RMM:   6    -0.231571438159E+04    0.23078E-04   -0.10563E-04  3726   0.736E-03    0.464E-02
RMM:   7    -0.231571436172E+04    0.19865E-04   -0.38574E-05  2930   0.623E-03    0.199E-02
RMM:   8    -0.231571435635E+04    0.53735E-05   -0.70331E-06  2858   0.276E-03
  26 F= -.23369728E+04 E0= -.23369728E+04  d E =-.158110E-01  mag=     2.0000
       N       E                     dE             d eps       ncg     rms          rms(c)
DAV:   1    -0.231569458531E+04    0.19776E-01   -0.21116E+00  4496   0.140E+00    0.426E-01
RMM:   2    -0.231572733276E+04   -0.32747E-01   -0.35168E-01  6562   0.310E-01    0.297E-01
RMM:   3    -0.231573181485E+04   -0.44821E-02   -0.41147E-02  6106   0.117E-01    0.467E-01
RMM:   4    -0.231573008314E+04    0.17317E-02   -0.39333E-03  5294   0.277E-02    0.156E-01
RMM:   5    -0.231573006402E+04    0.19116E-04   -0.95192E-04  5172   0.158E-02    0.171E-01
RMM:   6    -0.231572976482E+04    0.29920E-03   -0.70921E-04  4903   0.151E-02    0.815E-02
RMM:   7    -0.231572977120E+04   -0.63780E-05   -0.25312E-04  3784   0.936E-03    0.765E-02
RMM:   8    -0.231572969730E+04    0.73898E-04   -0.74741E-05  2943   0.660E-03    0.163E-02
RMM:   9    -0.231572969034E+04    0.69649E-05   -0.13837E-05  2938   0.326E-03
  27 F= -.23369884E+04 E0= -.23369884E+04  d E =-.155888E-01  mag=     2.0000
       N       E                     dE             d eps       ncg     rms          rms(c)
DAV:   1    -0.231545414413E+04    0.27555E+00   -0.17606E+01  4488   0.404E+00    0.123E+00
RMM:   2    -0.231572719791E+04   -0.27305E+00   -0.29409E+00  6571   0.899E-01    0.830E-01
RMM:   3    -0.231576576112E+04   -0.38563E-01   -0.36210E-01  6220   0.346E-01    0.131E+00
RMM:   4    -0.231575171149E+04    0.14050E-01   -0.32725E-02  6558   0.799E-02    0.463E-01
RMM:   5    -0.231574995619E+04    0.17553E-02   -0.67954E-03  5718   0.410E-02    0.361E-01
RMM:   6    -0.231574990249E+04    0.53705E-04   -0.56420E-03  6087   0.379E-02    0.348E-01
RMM:   7    -0.231574865464E+04    0.12478E-02   -0.22039E-03  5738   0.251E-02    0.153E-01
RMM:   8    -0.231574847263E+04    0.18201E-03   -0.59974E-04  3905   0.141E-02    0.984E-02
RMM:   9    -0.231574831244E+04    0.16020E-03   -0.17573E-04  3348   0.779E-03    0.276E-02
RMM:  10    -0.231574829216E+04    0.20278E-04   -0.10079E-04  3213   0.614E-03    0.106E-02
RMM:  11    -0.231574829077E+04    0.13842E-05   -0.13985E-05  2946   0.422E-03
  28 F= -.23370079E+04 E0= -.23370079E+04  d E =-.351278E-01  mag=     2.0000
       N       E                     dE             d eps       ncg     rms          rms(c)
DAV:   1    -0.231573617487E+04    0.12117E-01   -0.15316E+00  4560   0.120E+00    0.392E-01
RMM:   2    -0.231575978562E+04   -0.23611E-01   -0.25260E-01  6479   0.267E-01    0.241E-01
RMM:   3    -0.231576263704E+04   -0.28514E-02   -0.27564E-02  6054   0.102E-01    0.327E-01
RMM:   4    -0.231576157660E+04    0.10604E-02   -0.28354E-03  5315   0.254E-02    0.127E-01
RMM:   5    -0.231576138848E+04    0.18812E-03   -0.58626E-04  4643   0.147E-02    0.679E-02
RMM:   6    -0.231576150147E+04   -0.11300E-03   -0.34308E-04  4266   0.127E-02    0.111E-01
RMM:   7    -0.231576136463E+04    0.13685E-03   -0.13507E-04  3274   0.769E-03    0.422E-02
RMM:   8    -0.231576134911E+04    0.15513E-04   -0.40402E-05  2908   0.517E-03    0.215E-02
RMM:   9    -0.231576134260E+04    0.65163E-05   -0.79139E-06  2903   0.239E-03
  29 F= -.23370214E+04 E0= -.23370214E+04  d E =-.134677E-01  mag=     2.0000
       N       E                     dE             d eps       ncg     rms          rms(c)
DAV:   1    -0.231556588541E+04    0.19546E+00   -0.12767E+01  4488   0.346E+00    0.114E+00
RMM:   2    -0.231576305817E+04   -0.19717E+00   -0.21080E+00  6466   0.777E-01    0.726E-01
RMM:   3    -0.231578809236E+04   -0.25034E-01   -0.24698E-01  6173   0.303E-01    0.987E-01
RMM:   4    -0.231577852075E+04    0.95716E-02   -0.23707E-02  6584   0.738E-02    0.388E-01
RMM:   5    -0.231577708451E+04    0.14362E-02   -0.51867E-03  5523   0.390E-02    0.247E-01
RMM:   6    -0.231577760935E+04   -0.52484E-03   -0.39260E-03  5944   0.340E-02    0.304E-01
RMM:   7    -0.231577663055E+04    0.97880E-03   -0.15013E-03  5587   0.220E-02    0.168E-01
RMM:   8    -0.231577640955E+04    0.22101E-03   -0.45950E-04  3506   0.107E-02    0.928E-02
RMM:   9    -0.231577629962E+04    0.10993E-03   -0.95289E-05  3129   0.630E-03    0.249E-02
RMM:  10    -0.231577628540E+04    0.14220E-04   -0.53822E-05  3026   0.540E-03    0.971E-03
RMM:  11    -0.231577628550E+04   -0.10087E-06   -0.14135E-05  2932   0.415E-03
  30 F= -.23370377E+04 E0= -.23370377E+04  d E =-.297163E-01  mag=     2.0000
       N       E                     dE             d eps       ncg     rms          rms(c)
DAV:   1    -0.231574616095E+04    0.30124E-01   -0.26315E+00  4492   0.149E+00    0.509E-01
RMM:   2    -0.231579172104E+04   -0.45560E-01   -0.46196E-01  6560   0.345E-01    0.534E-01
RMM:   3    -0.231579498731E+04   -0.32663E-02   -0.50689E-02  6165   0.127E-01    0.495E-01
RMM:   4    -0.231579276822E+04    0.22191E-02   -0.51898E-03  5468   0.327E-02    0.204E-01
RMM:   5    -0.231579275837E+04    0.98514E-05   -0.11367E-03  4729   0.164E-02    0.210E-01
RMM:   6    -0.231579234618E+04    0.41219E-03   -0.75440E-04  5088   0.155E-02    0.106E-01
RMM:   7    -0.231579232658E+04    0.19605E-04   -0.46266E-04  4004   0.124E-02    0.814E-02
RMM:   8    -0.231579223748E+04    0.89093E-04   -0.10336E-04  3122   0.690E-03    0.178E-02
RMM:   9    -0.231579223098E+04    0.65000E-05   -0.16028E-05  2933   0.403E-03
  31 F= -.23370545E+04 E0= -.23370545E+04  d E =-.168108E-01  mag=     2.0000
       N       E                     dE             d eps       ncg     rms          rms(c)
DAV:   1    -0.231539933014E+04    0.39291E+00   -0.23603E+01  4488   0.448E+00    0.154E+00
RMM:   2    -0.231581581537E+04   -0.41649E+00   -0.42151E+00  6571   0.105E+00    0.164E+00
RMM:   3    -0.231584350311E+04   -0.27688E-01   -0.49002E-01  6348   0.394E-01    0.150E+00
RMM:   4    -0.231582432369E+04    0.19179E-01   -0.47339E-02  6066   0.971E-02    0.656E-01
RMM:   5    -0.231582309067E+04    0.12330E-02   -0.10239E-02  6011   0.468E-02    0.606E-01
RMM:   6    -0.231582018822E+04    0.29025E-02   -0.69767E-03  5696   0.433E-02    0.370E-01
RMM:   7    -0.231581968664E+04    0.50157E-03   -0.47557E-03  5809   0.343E-02    0.256E-01
RMM:   8    -0.231581883991E+04    0.84673E-03   -0.11805E-03  5398   0.190E-02    0.722E-02
RMM:   9    -0.231581873564E+04    0.10427E-03   -0.18421E-04  3396   0.932E-03    0.305E-02
RMM:  10    -0.231581871450E+04    0.21147E-04   -0.66459E-05  3072   0.601E-03    0.124E-02
RMM:  11    -0.231581871489E+04   -0.38877E-06   -0.22213E-05  2972   0.451E-03
  32 F= -.23370837E+04 E0= -.23370837E+04  d E =-.460120E-01  mag=     2.0000
       N       E                     dE             d eps       ncg     rms          rms(c)
DAV:   1    -0.231575435127E+04    0.64363E-01   -0.37637E+00  4524   0.179E+00    0.609E-01
RMM:   2    -0.231581953508E+04   -0.65184E-01   -0.66071E-01  6572   0.414E-01    0.645E-01
RMM:   3    -0.231582411434E+04   -0.45793E-02   -0.72715E-02  6229   0.153E-01    0.596E-01
RMM:   4    -0.231582095196E+04    0.31624E-02   -0.74373E-03  5628   0.391E-02    0.248E-01
RMM:   5    -0.231582090506E+04    0.46898E-04   -0.16099E-03  5148   0.193E-02    0.250E-01
RMM:   6    -0.231582032750E+04    0.57756E-03   -0.10644E-03  5232   0.180E-02    0.126E-01
RMM:   7    -0.231582030466E+04    0.22836E-04   -0.67162E-04  4506   0.146E-02    0.990E-02
RMM:   8    -0.231582016943E+04    0.13523E-03   -0.15292E-04  3406   0.774E-03    0.218E-02
RMM:   9    -0.231582015897E+04    0.10454E-04   -0.22145E-05  2942   0.451E-03    0.110E-02
RMM:  10    -0.231582015670E+04    0.22746E-05   -0.10041E-05  2906   0.264E-03
  33 F= -.23370862E+04 E0= -.23370862E+04  d E =-.485770E-01  mag=     2.0000
       N       E                     dE             d eps       ncg     rms          rms(c)
DAV:   1    -0.231577528217E+04    0.44877E-01   -0.36323E+00  4488   0.174E+00    0.603E-01
RMM:   2    -0.231583771886E+04   -0.62437E-01   -0.63318E-01  6556   0.409E-01    0.614E-01
RMM:   3    -0.231584303569E+04   -0.53168E-02   -0.68625E-02  6174   0.149E-01    0.635E-01
RMM:   4    -0.231583943100E+04    0.36047E-02   -0.71142E-03  5731   0.388E-02    0.242E-01
RMM:   5    -0.231583942679E+04    0.42061E-05   -0.15706E-03  5278   0.188E-02    0.247E-01
RMM:   6    -0.231583877776E+04    0.64903E-03   -0.98429E-04  5244   0.182E-02    0.857E-02
RMM:   7    -0.231583882875E+04   -0.50989E-04   -0.45377E-04  4430   0.130E-02    0.875E-02
RMM:   8    -0.231583872198E+04    0.10677E-03   -0.14306E-04  3156   0.728E-03    0.241E-02
RMM:   9    -0.231583871145E+04    0.10534E-04   -0.20413E-05  2932   0.409E-03    0.107E-02
RMM:  10    -0.231583870924E+04    0.22071E-05   -0.90969E-06  2897   0.248E-03
  34 F= -.23371059E+04 E0= -.23371059E+04  d E =-.196725E-01  mag=     2.0000
       N       E                     dE             d eps       ncg     rms          rms(c)
DAV:   1    -0.231528357295E+04    0.55514E+00   -0.32335E+01  4488   0.522E+00    0.182E+00
RMM:   2    -0.231585711091E+04   -0.57354E+00   -0.57828E+00  6565   0.124E+00    0.195E+00
RMM:   3    -0.231589716405E+04   -0.40053E-01   -0.65721E-01  6272   0.460E-01    0.190E+00
RMM:   4    -0.231586779727E+04    0.29367E-01   -0.64236E-02  6202   0.114E-01    0.823E-01
RMM:   5    -0.231586502430E+04    0.27730E-02   -0.14172E-02  6219   0.535E-02    0.688E-01
RMM:   6    -0.231586033809E+04    0.46862E-02   -0.87223E-03  5579   0.520E-02    0.296E-01
RMM:   7    -0.231586084528E+04   -0.50720E-03   -0.51575E-03  5924   0.378E-02    0.298E-01
RMM:   8    -0.231585968326E+04    0.11620E-02   -0.19035E-03  5648   0.225E-02    0.100E-01
RMM:   9    -0.231585949347E+04    0.18979E-03   -0.24771E-04  3596   0.905E-03    0.361E-02
RMM:  10    -0.231585946960E+04    0.23869E-04   -0.97908E-05  3122   0.701E-03    0.152E-02
RMM:  11    -0.231585947891E+04   -0.93117E-05   -0.32742E-05  2986   0.510E-03
  35 F= -.23371301E+04 E0= -.23371301E+04  d E =-.439137E-01  mag=     2.0000
       N       E                     dE             d eps       ncg     rms          rms(c)
DAV:   1    -0.231576941631E+04    0.90053E-01   -0.65167E+00  4488   0.232E+00    0.784E-01
RMM:   2    -0.231587729134E+04   -0.10788E+00   -0.11274E+00  6563   0.541E-01    0.562E-01
RMM:   3    -0.231589194255E+04   -0.14651E-01   -0.12355E-01  6169   0.201E-01    0.880E-01
RMM:   4    -0.231588504508E+04    0.68975E-02   -0.13010E-02  6136   0.509E-02    0.301E-01
RMM:   5    -0.231588524564E+04   -0.20056E-03   -0.27036E-03  5683   0.231E-02    0.331E-01
RMM:   6    -0.231588424566E+04    0.99998E-03   -0.18178E-03  5483   0.228E-02    0.145E-01
RMM:   7    -0.231588414987E+04    0.95791E-04   -0.70311E-04  5083   0.150E-02    0.101E-01
RMM:   8    -0.231588403177E+04    0.11810E-03   -0.23098E-04  3184   0.935E-03    0.337E-02
RMM:   9    -0.231588401147E+04    0.20293E-04   -0.29953E-05  2932   0.434E-03    0.169E-02
RMM:  10    -0.231588400840E+04    0.30711E-05   -0.17116E-05  2901   0.326E-03
  36 F= -.23371558E+04 E0= -.23371558E+04  d E =-.256359E-01  mag=     2.0000
       N       E                     dE             d eps       ncg     rms          rms(c)
DAV:   1    -0.231547708203E+04    0.40693E+00   -0.23944E+01  4488   0.446E+00    0.152E+00
RMM:   2    -0.231588391822E+04   -0.40684E+00   -0.42231E+00  6562   0.105E+00    0.121E+00
RMM:   3    -0.231593471671E+04   -0.50798E-01   -0.47700E-01  6251   0.390E-01    0.175E+00
RMM:   4    -0.231590878079E+04    0.25936E-01   -0.48255E-02  6398   0.979E-02    0.628E-01
RMM:   5    -0.231590850568E+04    0.27511E-03   -0.97995E-03  6179   0.429E-02    0.625E-01
RMM:   6    -0.231590496493E+04    0.35407E-02   -0.66281E-03  5802   0.426E-02    0.280E-01
RMM:   7    -0.231590440060E+04    0.56433E-03   -0.27839E-03  5435   0.287E-02    0.152E-01
RMM:   8    -0.231590423709E+04    0.16351E-03   -0.82900E-04  4079   0.184E-02    0.969E-02
RMM:   9    -0.231590408345E+04    0.15364E-03   -0.15465E-04  3335   0.774E-03    0.394E-02
RMM:  10    -0.231590405600E+04    0.27441E-04   -0.96797E-05  3004   0.658E-03    0.124E-02
RMM:  11    -0.231590405779E+04   -0.17850E-05   -0.29528E-05  2962   0.437E-03
  37 F= -.23371781E+04 E0= -.23371781E+04  d E =-.480003E-01  mag=     2.0000
       N       E                     dE             d eps       ncg     rms          rms(c)
DAV:   1    -0.231582220507E+04    0.81851E-01   -0.65071E+00  4488   0.238E+00    0.809E-01
RMM:   2    -0.231592488574E+04   -0.10268E+00   -0.10932E+00  6425   0.541E-01    0.478E-01
RMM:   3    -0.231593883483E+04   -0.13949E-01   -0.12626E-01  6162   0.212E-01    0.776E-01
RMM:   4    -0.231593411564E+04    0.47192E-02   -0.12528E-02  6401   0.506E-02    0.302E-01
RMM:   5    -0.231593418221E+04   -0.66563E-04   -0.29961E-03  5525   0.249E-02    0.318E-01
RMM:   6    -0.231593326228E+04    0.91993E-03   -0.20709E-03  5550   0.248E-02    0.173E-01
RMM:   7    -0.231593320389E+04    0.58389E-04   -0.94588E-04  5145   0.160E-02    0.151E-01
RMM:   8    -0.231593292355E+04    0.28033E-03   -0.30464E-04  3417   0.103E-02    0.327E-02
RMM:   9    -0.231593290658E+04    0.16972E-04   -0.42696E-05  2950   0.492E-03    0.159E-02
RMM:  10    -0.231593290242E+04    0.41599E-05   -0.14452E-05  2908   0.353E-03
  38 F= -.23372073E+04 E0= -.23372073E+04  d E =-.291432E-01  mag=     2.0000
       N       E                     dE             d eps       ncg     rms          rms(c)
DAV:   1    -0.231581956436E+04    0.11334E+00   -0.73229E+00  4488   0.253E+00    0.858E-01
RMM:   2    -0.231593492952E+04   -0.11537E+00   -0.12289E+00  6438   0.573E-01    0.507E-01
RMM:   3    -0.231595090901E+04   -0.15979E-01   -0.14309E-01  6150   0.223E-01    0.837E-01
RMM:   4    -0.231594537058E+04    0.55384E-02   -0.14131E-02  6422   0.536E-02    0.316E-01
RMM:   5    -0.231594538392E+04   -0.13335E-04   -0.32902E-03  5554   0.261E-02    0.328E-01
RMM:   6    -0.231594444303E+04    0.94089E-03   -0.23561E-03  5585   0.262E-02    0.186E-01
RMM:   7    -0.231594434827E+04    0.94765E-04   -0.10418E-03  5225   0.169E-02    0.159E-01
RMM:   8    -0.231594403568E+04    0.31259E-03   -0.34738E-04  3525   0.109E-02    0.363E-02
RMM:   9    -0.231594401440E+04    0.21277E-04   -0.49877E-05  2954   0.510E-03    0.174E-02
RMM:  10    -0.231594400957E+04    0.48332E-05   -0.17627E-05  2916   0.385E-03
  39 F= -.23372188E+04 E0= -.23372188E+04  d E =-.406601E-01  mag=     2.0000
       N       E                     dE             d eps       ncg     rms          rms(c)
DAV:   1    -0.231582042505E+04    0.12359E+00   -0.85118E+00  4488   0.281E+00    0.967E-01
RMM:   2    -0.231595767762E+04   -0.13725E+00   -0.14342E+00  6416   0.642E-01    0.779E-01
RMM:   3    -0.231597914678E+04   -0.21469E-01   -0.16709E-01  6249   0.250E-01    0.118E+00
RMM:   4    -0.231596554781E+04    0.13599E-01   -0.17457E-02  6406   0.658E-02    0.326E-01
RMM:   5    -0.231596595033E+04   -0.40252E-03   -0.45006E-03  5642   0.301E-02    0.400E-01
RMM:   6    -0.231596431517E+04    0.16352E-02   -0.29103E-03  5733   0.300E-02    0.180E-01
RMM:   7    -0.231596425515E+04    0.60014E-04   -0.13783E-03  5448   0.199E-02    0.158E-01
RMM:   8    -0.231596393608E+04    0.31907E-03   -0.39875E-04  3975   0.113E-02    0.393E-02
RMM:   9    -0.231596391071E+04    0.25371E-04   -0.64159E-05  2975   0.566E-03    0.182E-02
RMM:  10    -0.231596390361E+04    0.71027E-05   -0.18856E-05  2925   0.411E-03
  40 F= -.23372391E+04 E0= -.23372391E+04  d E =-.203212E-01  mag=     2.0000
       N       E                     dE             d eps       ncg     rms          rms(c)
DAV:   1    -0.231595838623E+04    0.55245E-02   -0.36139E-01  4720   0.581E-01    0.199E-01
RMM:   2    -0.231596424365E+04   -0.58574E-02   -0.60516E-02  6433   0.132E-01    0.179E-01
RMM:   3    -0.231596505314E+04   -0.80949E-03   -0.67807E-03  5734   0.504E-02    0.246E-01
RMM:   4    -0.231596447815E+04    0.57499E-03   -0.72074E-04  3808   0.138E-02    0.640E-02
RMM:   5    -0.231596451122E+04   -0.33074E-04   -0.20170E-04  3087   0.810E-03    0.863E-02
RMM:   6    -0.231596442722E+04    0.84001E-04   -0.13202E-04  3503   0.812E-03    0.329E-02
RMM:   7    -0.231596442679E+04    0.43496E-06   -0.56257E-05  2998   0.613E-03
  41 F= -.23372398E+04 E0= -.23372398E+04  d E =-.209466E-01  mag=     2.0000
       N       E                     dE             d eps       ncg     rms          rms(c)
DAV:   1    -0.231593851204E+04    0.25915E-01   -0.22614E+00  4496   0.153E+00    0.464E-01
RMM:   2    -0.231597218610E+04   -0.33674E-01   -0.34673E-01  6346   0.337E-01    0.417E-01
RMM:   3    -0.231597608705E+04   -0.39009E-02   -0.36315E-02  6172   0.126E-01    0.533E-01
RMM:   4    -0.231597322569E+04    0.28614E-02   -0.38383E-03  5979   0.332E-02    0.172E-01
RMM:   5    -0.231597338066E+04   -0.15498E-03   -0.10993E-03  4670   0.166E-02    0.213E-01
RMM:   6    -0.231597288536E+04    0.49531E-03   -0.73523E-04  5182   0.169E-02    0.643E-02
RMM:   7    -0.231597287515E+04    0.10203E-04   -0.19921E-04  3899   0.107E-02    0.537E-02
RMM:   8    -0.231597283985E+04    0.35299E-04   -0.69664E-05  2963   0.591E-03    0.209E-02
RMM:   9    -0.231597283191E+04    0.79435E-05   -0.13571E-05  2915   0.383E-03
  42 F= -.23372489E+04 E0= -.23372489E+04  d E =-.909804E-02  mag=     2.0000
       N       E                     dE             d eps       ncg     rms          rms(c)
DAV:   1    -0.231596237020E+04    0.10470E-01   -0.74841E-01  4528   0.881E-01    0.267E-01
RMM:   2    -0.231597353011E+04   -0.11160E-01   -0.11477E-01  6321   0.194E-01    0.243E-01
RMM:   3    -0.231597481859E+04   -0.12885E-02   -0.11918E-02  5982   0.722E-02    0.311E-01
RMM:   4    -0.231597385527E+04    0.96333E-03   -0.12918E-03  5362   0.193E-02    0.988E-02
RMM:   5    -0.231597390488E+04   -0.49611E-04   -0.34668E-04  3277   0.104E-02    0.123E-01
RMM:   6    -0.231597373668E+04    0.16820E-03   -0.24875E-04  4347   0.110E-02    0.373E-02
RMM:   7    -0.231597373648E+04    0.20067E-06   -0.77942E-05  3158   0.768E-03
  43 F= -.23372502E+04 E0= -.23372502E+04  d E =-.104124E-01  mag=     2.0000
       N       E                     dE             d eps       ncg     rms          rms(c)
DAV:   1    -0.231593424459E+04    0.39492E-01   -0.34809E+00  4488   0.197E+00    0.551E-01
RMM:   2    -0.231597935758E+04   -0.45113E-01   -0.47311E-01  6243   0.421E-01    0.397E-01
RMM:   3    -0.231598533113E+04   -0.59736E-02   -0.49268E-02  6033   0.159E-01    0.608E-01
RMM:   4    -0.231598148650E+04    0.38446E-02   -0.51249E-03  6345   0.388E-02    0.216E-01
RMM:   5    -0.231598132825E+04    0.15825E-03   -0.14082E-03  5053   0.178E-02    0.186E-01
RMM:   6    -0.231598096882E+04    0.35944E-03   -0.98220E-04  5445   0.191E-02    0.927E-02
RMM:   7    -0.231598102582E+04   -0.57002E-04   -0.42776E-04  4368   0.132E-02    0.108E-01
RMM:   8    -0.231598087857E+04    0.14725E-03   -0.11076E-04  3061   0.693E-03    0.180E-02
RMM:   9    -0.231598087024E+04    0.83299E-05   -0.21138E-05  2926   0.444E-03
  44 F= -.23372585E+04 E0= -.23372585E+04  d E =-.828957E-02  mag=     2.0000
       N       E                     dE             d eps       ncg     rms          rms(c)
DAV:   1    -0.231596869395E+04    0.12185E-01   -0.92908E-01  4528   0.102E+00    0.285E-01
RMM:   2    -0.231598079670E+04   -0.12103E-01   -0.12632E-01  6246   0.217E-01    0.215E-01
RMM:   3    -0.231598235973E+04   -0.15630E-02   -0.12854E-02  5870   0.808E-02    0.322E-01
RMM:   4    -0.231598128683E+04    0.10729E-02   -0.13734E-03  5425   0.201E-02    0.113E-01
RMM:   5    -0.231598123601E+04    0.50826E-04   -0.37528E-04  3391   0.106E-02    0.946E-02
RMM:   6    -0.231598113268E+04    0.10333E-03   -0.28038E-04  4613   0.115E-02    0.422E-02
RMM:   7    -0.231598115189E+04   -0.19213E-04   -0.10204E-04  3071   0.842E-03    0.545E-02
RMM:   8    -0.231598111543E+04    0.36461E-04   -0.30101E-05  2902   0.471E-03    0.877E-03
RMM:   9    -0.231598111348E+04    0.19537E-05   -0.64892E-06  2895   0.278E-03
  45 F= -.23372593E+04 E0= -.23372593E+04  d E =-.914073E-02  mag=     2.0000
       N       E                     dE             d eps       ncg     rms          rms(c)
DAV:   1    -0.231595278998E+04    0.28325E-01   -0.26143E+00  4488   0.171E+00    0.441E-01
RMM:   2    -0.231598751434E+04   -0.34724E-01   -0.35826E-01  6370   0.364E-01    0.401E-01
RMM:   3    -0.231599099420E+04   -0.34799E-02   -0.35656E-02  5986   0.128E-01    0.486E-01
RMM:   4    -0.231598861319E+04    0.23810E-02   -0.38084E-03  5894   0.314E-02    0.198E-01
RMM:   5    -0.231598838600E+04    0.22719E-03   -0.88401E-04  4672   0.150E-02    0.143E-01
RMM:   6    -0.231598817828E+04    0.20772E-03   -0.70593E-04  4926   0.166E-02    0.899E-02
RMM:   7    -0.231598818093E+04   -0.26449E-05   -0.31372E-04  3860   0.129E-02    0.861E-02
RMM:   8    -0.231598809191E+04    0.89012E-04   -0.79023E-05  3124   0.641E-03    0.152E-02
RMM:   9    -0.231598808665E+04    0.52664E-05   -0.13933E-05  2909   0.419E-03
  46 F= -.23372670E+04 E0= -.23372670E+04  d E =-.768806E-02  mag=     2.0000
       N       E                     dE             d eps       ncg     rms          rms(c)
DAV:   1    -0.231593927095E+04    0.48821E-01   -0.37880E+00  4488   0.206E+00    0.531E-01
RMM:   2    -0.231598961851E+04   -0.50348E-01   -0.51973E-01  6350   0.438E-01    0.484E-01
RMM:   3    -0.231599470204E+04   -0.50835E-02   -0.52056E-02  6024   0.155E-01    0.586E-01
RMM:   4    -0.231599123664E+04    0.34654E-02   -0.55316E-03  6086   0.379E-02    0.239E-01
RMM:   5    -0.231599089941E+04    0.33723E-03   -0.12726E-03  5099   0.175E-02    0.171E-01
RMM:   6    -0.231599059221E+04    0.30719E-03   -0.10021E-03  5049   0.194E-02    0.105E-01
RMM:   7    -0.231599061275E+04   -0.20539E-04   -0.46181E-04  4249   0.148E-02    0.108E-01
RMM:   8    -0.231599047290E+04    0.13985E-03   -0.12362E-04  3500   0.740E-03    0.190E-02
RMM:   9    -0.231599046426E+04    0.86490E-05   -0.20711E-05  2927   0.469E-03
  47 F= -.23372703E+04 E0= -.23372703E+04  d E =-.109538E-01  mag=     2.0000
       N       E                     dE             d eps       ncg     rms          rms(c)
DAV:   1    -0.231596639494E+04    0.24078E-01   -0.23655E+00  4488   0.166E+00    0.457E-01
RMM:   2    -0.231599745236E+04   -0.31057E-01   -0.31146E-01  6314   0.343E-01    0.510E-01
RMM:   3    -0.231599956186E+04   -0.21095E-02   -0.32923E-02  5901   0.127E-01    0.489E-01
RMM:   4    -0.231599713706E+04    0.24248E-02   -0.35111E-03  5731   0.317E-02    0.181E-01
RMM:   5    -0.231599700747E+04    0.12959E-03   -0.87771E-04  4963   0.162E-02    0.155E-01
RMM:   6    -0.231599680739E+04    0.20007E-03   -0.69776E-04  4842   0.161E-02    0.111E-01
RMM:   7    -0.231599671076E+04    0.96632E-04   -0.34368E-04  4067   0.136E-02    0.652E-02
RMM:   8    -0.231599666645E+04    0.44308E-04   -0.68066E-05  3281   0.624E-03    0.177E-02
RMM:   9    -0.231599666209E+04    0.43633E-05   -0.12828E-05  2925   0.448E-03
  48 F= -.23372765E+04 E0= -.23372765E+04  d E =-.627810E-02  mag=     2.0000
       N       E                     dE             d eps       ncg     rms          rms(c)
DAV:   1    -0.231599184011E+04    0.48263E-02   -0.42643E-01  4592   0.705E-01    0.194E-01
RMM:   2    -0.231599741328E+04   -0.55732E-02   -0.56195E-02  6291   0.146E-01    0.208E-01
RMM:   3    -0.231599783950E+04   -0.42622E-03   -0.58979E-03  5352   0.543E-02    0.211E-01
RMM:   4    -0.231599739277E+04    0.44673E-03   -0.63354E-04  4107   0.137E-02    0.777E-02
RMM:   5    -0.231599737047E+04    0.22296E-04   -0.15645E-04  3037   0.806E-03    0.675E-02
RMM:   6    -0.231599733132E+04    0.39153E-04   -0.13754E-04  3881   0.848E-03    0.466E-02
RMM:   7    -0.231599731498E+04    0.16337E-04   -0.65768E-05  3026   0.697E-03    0.279E-02
RMM:   8    -0.231599730690E+04    0.80801E-05   -0.14442E-05  2896   0.402E-03
  49 F= -.23372772E+04 E0= -.23372772E+04  d E =-.695872E-02  mag=     2.0000
       N       E                     dE             d eps       ncg     rms          rms(c)
DAV:   1    -0.231597599954E+04    0.21315E-01   -0.20332E+00  4488   0.151E+00    0.391E-01
RMM:   2    -0.231600362045E+04   -0.27621E-01   -0.27373E-01  6224   0.303E-01    0.530E-01
RMM:   3    -0.231600454139E+04   -0.92094E-03   -0.30629E-02  5889   0.118E-01    0.382E-01
RMM:   4    -0.231600308693E+04    0.14545E-02   -0.28763E-03  5542   0.276E-02    0.145E-01
RMM:   5    -0.231600315114E+04   -0.64208E-04   -0.71256E-04  4929   0.151E-02    0.179E-01
RMM:   6    -0.231600276395E+04    0.38718E-03   -0.65099E-04  4916   0.152E-02    0.621E-02
RMM:   7    -0.231600277743E+04   -0.13478E-04   -0.25272E-04  3899   0.119E-02    0.645E-02
RMM:   8    -0.231600273078E+04    0.46658E-04   -0.71460E-05  3006   0.598E-03    0.188E-02
RMM:   9    -0.231600272525E+04    0.55264E-05   -0.14687E-05  2933   0.400E-03
  50 F= -.23372825E+04 E0= -.23372825E+04  d E =-.531850E-02  mag=     2.0000
       N       E                     dE             d eps       ncg     rms          rms(c)
DAV:   1    -0.231599458431E+04    0.81465E-02   -0.68754E-01  4512   0.879E-01    0.226E-01
RMM:   2    -0.231600382176E+04   -0.92375E-02   -0.92435E-02  6238   0.176E-01    0.290E-01
RMM:   3    -0.231600427661E+04   -0.45485E-03   -0.10301E-02  5644   0.694E-02    0.228E-01
RMM:   4    -0.231600375650E+04    0.52011E-03   -0.96840E-04  4773   0.163E-02    0.850E-02
RMM:   5    -0.231600377566E+04   -0.19162E-04   -0.23966E-04  3515   0.953E-03    0.104E-01
RMM:   6    -0.231600364345E+04    0.13222E-03   -0.22637E-04  4225   0.101E-02    0.351E-02
RMM:   7    -0.231600364761E+04   -0.41681E-05   -0.85657E-05  3129   0.776E-03
  51 F= -.23372834E+04 E0= -.23372834E+04  d E =-.618549E-02  mag=     2.0000
       N       E                     dE             d eps       ncg     rms          rms(c)
DAV:   1    -0.231597579968E+04    0.27844E-01   -0.27240E+00  4488   0.176E+00    0.425E-01
RMM:   2    -0.231600848680E+04   -0.32687E-01   -0.33467E-01  6273   0.340E-01    0.481E-01
RMM:   3    -0.231601124557E+04   -0.27588E-02   -0.36130E-02  5954   0.134E-01    0.472E-01
RMM:   4    -0.231600904926E+04    0.21963E-02   -0.34993E-03  5878   0.313E-02    0.154E-01
RMM:   5    -0.231600912730E+04   -0.78036E-04   -0.87988E-04  5158   0.164E-02    0.198E-01
RMM:   6    -0.231600868746E+04    0.43984E-03   -0.74424E-04  5117   0.158E-02    0.666E-02
RMM:   7    -0.231600866671E+04    0.20748E-04   -0.25534E-04  4340   0.114E-02    0.414E-02
RMM:   8    -0.231600865536E+04    0.11354E-04   -0.50868E-05  2956   0.608E-03    0.262E-02
RMM:   9    -0.231600864513E+04    0.10229E-04   -0.13580E-05  2906   0.363E-03    0.131E-02
RMM:  10    -0.231600864352E+04    0.16022E-05   -0.14252E-05  2899   0.285E-03
  52 F= -.23372884E+04 E0= -.23372884E+04  d E =-.500321E-02  mag=     2.0000
       N       E                     dE             d eps       ncg     rms          rms(c)
DAV:   1    -0.231600059713E+04    0.80480E-02   -0.72996E-01  4512   0.910E-01    0.218E-01
RMM:   2    -0.231600934334E+04   -0.87462E-02   -0.89192E-02  6284   0.175E-01    0.250E-01
RMM:   3    -0.231601004791E+04   -0.70457E-03   -0.95055E-03  5673   0.672E-02    0.242E-01
RMM:   4    -0.231600947646E+04    0.57146E-03   -0.93427E-04  4671   0.162E-02    0.793E-02
RMM:   5    -0.231600949773E+04   -0.21277E-04   -0.23236E-04  3678   0.949E-03    0.104E-01
RMM:   6    -0.231600937334E+04    0.12440E-03   -0.21481E-04  4000   0.975E-03    0.318E-02
RMM:   7    -0.231600936640E+04    0.69339E-05   -0.58931E-05  3150   0.678E-03
  53 F= -.23372891E+04 E0= -.23372891E+04  d E =-.573255E-02  mag=     2.0000
       N       E                     dE             d eps       ncg     rms          rms(c)
DAV:   1    -0.231598179723E+04    0.27576E-01   -0.28360E+00  4488   0.182E+00    0.413E-01
RMM:   2    -0.231601365256E+04   -0.31855E-01   -0.33460E-01  6335   0.347E-01    0.367E-01
RMM:   3    -0.231601691359E+04   -0.32610E-02   -0.34348E-02  5848   0.132E-01    0.435E-01
RMM:   4    -0.231601507422E+04    0.18394E-02   -0.34868E-03  5918   0.305E-02    0.173E-01
RMM:   5    -0.231601505080E+04    0.23418E-04   -0.75238E-04  4805   0.144E-02    0.186E-01
RMM:   6    -0.231601464854E+04    0.40226E-03   -0.68085E-04  5123   0.155E-02    0.694E-02
RMM:   7    -0.231601461437E+04    0.34164E-04   -0.33535E-04  4671   0.130E-02    0.423E-02
RMM:   8    -0.231601459889E+04    0.15480E-04   -0.56866E-05  2989   0.657E-03    0.253E-02
RMM:   9    -0.231601458766E+04    0.11232E-04   -0.13047E-05  2891   0.369E-03    0.133E-02
RMM:  10    -0.231601458476E+04    0.29001E-05   -0.16482E-05  2886   0.293E-03
  54 F= -.23372944E+04 E0= -.23372944E+04  d E =-.525853E-02  mag=     2.0000
       N       E                     dE             d eps       ncg     rms          rms(c)
DAV:   1    -0.231600151094E+04    0.13077E-01   -0.12336E+00  4496   0.120E+00    0.270E-01
RMM:   2    -0.231601533701E+04   -0.13826E-01   -0.14482E-01  6347   0.228E-01    0.241E-01
RMM:   3    -0.231601673868E+04   -0.14017E-02   -0.14620E-02  5719   0.844E-02    0.288E-01
RMM:   4    -0.231601593394E+04    0.80474E-03   -0.15056E-03  5184   0.201E-02    0.113E-01
RMM:   5    -0.231601592356E+04    0.10376E-04   -0.32517E-04  3692   0.104E-02    0.123E-01
RMM:   6    -0.231601574392E+04    0.17964E-03   -0.31655E-04  4512   0.116E-02    0.450E-02
RMM:   7    -0.231601573889E+04    0.50269E-05   -0.15504E-04  3880   0.947E-03    0.384E-02
RMM:   8    -0.231601572210E+04    0.16794E-04   -0.34350E-05  2929   0.565E-03    0.143E-02
RMM:   9    -0.231601571821E+04    0.38837E-05   -0.72051E-06  2891   0.305E-03
  55 F= -.23372956E+04 E0= -.23372956E+04  d E =-.642101E-02  mag=     2.0000
       N       E                     dE             d eps       ncg     rms          rms(c)
DAV:   1    -0.231598368820E+04    0.32034E-01   -0.35476E+00  4488   0.205E+00    0.474E-01
RMM:   2    -0.231602131870E+04   -0.37631E-01   -0.38656E-01  6232   0.390E-01    0.462E-01
RMM:   3    -0.231602340544E+04   -0.20867E-02   -0.38377E-02  5835   0.145E-01    0.396E-01
RMM:   4    -0.231602145290E+04    0.19525E-02   -0.39740E-03  5794   0.339E-02    0.190E-01
RMM:   5    -0.231602145280E+04    0.94908E-07   -0.93639E-04  4733   0.162E-02    0.216E-01
RMM:   6    -0.231602102032E+04    0.43248E-03   -0.87424E-04  5192   0.173E-02    0.112E-01
RMM:   7    -0.231602096389E+04    0.56430E-04   -0.51826E-04  4666   0.149E-02    0.857E-02
RMM:   8    -0.231602086573E+04    0.98161E-04   -0.11431E-04  3699   0.782E-03    0.173E-02
RMM:   9    -0.231602085847E+04    0.72598E-05   -0.16392E-05  2914   0.501E-03
  56 F= -.23373008E+04 E0= -.23373008E+04  d E =-.520470E-02  mag=     2.0000
       N       E                     dE             d eps       ncg     rms          rms(c)
DAV:   1    -0.231601422952E+04    0.66362E-02   -0.67779E-01  4528   0.895E-01    0.207E-01
RMM:   2    -0.231602141489E+04   -0.71854E-02   -0.73970E-02  6229   0.171E-01    0.198E-01
RMM:   3    -0.231602184295E+04   -0.42805E-03   -0.72724E-03  5442   0.632E-02    0.176E-01
RMM:   4    -0.231602146166E+04    0.38129E-03   -0.76552E-04  4365   0.150E-02    0.828E-02
RMM:   5    -0.231602146367E+04   -0.20156E-05   -0.17897E-04  2980   0.862E-03    0.964E-02
RMM:   6    -0.231602137405E+04    0.89621E-04   -0.17748E-04  4025   0.917E-03    0.470E-02
RMM:   7    -0.231602136663E+04    0.74194E-05   -0.10261E-04  3222   0.784E-03    0.384E-02
RMM:   8    -0.231602134684E+04    0.19798E-04   -0.24730E-05  2906   0.510E-03    0.786E-03
RMM:   9    -0.231602134553E+04    0.13055E-05   -0.53455E-06  2873   0.329E-03
  57 F= -.23373013E+04 E0= -.23373013E+04  d E =-.572052E-02  mag=     2.0000
       N       E                     dE             d eps       ncg     rms          rms(c)
DAV:   1    -0.231600054905E+04    0.20798E-01   -0.24622E+00  4488   0.169E+00    0.371E-01
RMM:   2    -0.231602664700E+04   -0.26098E-01   -0.26066E-01  6150   0.318E-01    0.442E-01
RMM:   3    -0.231602697922E+04   -0.33222E-03   -0.25812E-02  5790   0.118E-01    0.291E-01
RMM:   4    -0.231602598139E+04    0.99783E-03   -0.26779E-03  5360   0.266E-02    0.158E-01
RMM:   5    -0.231602594606E+04    0.35328E-04   -0.54056E-04  3848   0.131E-02    0.165E-01
RMM:   6    -0.231602571614E+04    0.22992E-03   -0.60548E-04  4867   0.151E-02    0.104E-01
RMM:   7    -0.231602562531E+04    0.90838E-04   -0.34242E-04  4220   0.131E-02    0.569E-02
RMM:   8    -0.231602558782E+04    0.37484E-04   -0.57678E-05  3130   0.622E-03    0.143E-02
RMM:   9    -0.231602558511E+04    0.27174E-05   -0.97618E-06  2888   0.433E-03
  58 F= -.23373054E+04 E0= -.23373054E+04  d E =-.408310E-02  mag=     2.0000
       N       E                     dE             d eps       ncg     rms          rms(c)
DAV:   1    -0.231600464294E+04    0.20945E-01   -0.22007E+00  4488   0.160E+00    0.351E-01
RMM:   2    -0.231602796891E+04   -0.23326E-01   -0.23315E-01  6144   0.301E-01    0.417E-01
RMM:   3    -0.231602829067E+04   -0.32176E-03   -0.23108E-02  5790   0.112E-01    0.276E-01
RMM:   4    -0.231602739170E+04    0.89897E-03   -0.23972E-03  5303   0.253E-02    0.149E-01
RMM:   5    -0.231602736084E+04    0.30863E-04   -0.48672E-04  3716   0.126E-02    0.157E-01
RMM:   6    -0.231602715262E+04    0.20822E-03   -0.54381E-04  4838   0.145E-02    0.983E-02
RMM:   7    -0.231602707209E+04    0.80529E-04   -0.30678E-04  4080   0.125E-02    0.541E-02
RMM:   8    -0.231602703802E+04    0.34075E-04   -0.52786E-05  3077   0.610E-03    0.136E-02
RMM:   9    -0.231602703553E+04    0.24847E-05   -0.91311E-06  2886   0.426E-03
  59 F= -.23373067E+04 E0= -.23373067E+04  d E =-.538892E-02  mag=     2.0000
       N       E                     dE             d eps       ncg     rms          rms(c)
DAV:   1    -0.231601598030E+04    0.11058E-01   -0.17016E+00  4492   0.142E+00    0.317E-01
RMM:   2    -0.231603195501E+04   -0.15975E-01   -0.15683E-01  6015   0.256E-01    0.393E-01
RMM:   3    -0.231603208156E+04   -0.12655E-03   -0.15597E-02  5435   0.102E-01    0.286E-01
RMM:   4    -0.231603128571E+04    0.79585E-03   -0.17306E-03  5338   0.237E-02    0.163E-01
RMM:   5    -0.231603114123E+04    0.14449E-03   -0.42225E-04  3888   0.129E-02    0.123E-01
RMM:   6    -0.231603095253E+04    0.18869E-03   -0.51642E-04  4652   0.155E-02    0.585E-02
RMM:   7    -0.231603094554E+04    0.69916E-05   -0.19594E-04  3735   0.123E-02    0.515E-02
RMM:   8    -0.231603091257E+04    0.32976E-04   -0.41673E-05  2944   0.525E-03    0.114E-02
RMM:   9    -0.231603091071E+04    0.18529E-05   -0.77591E-06  2899   0.352E-03
  60 F= -.23373102E+04 E0= -.23373102E+04  d E =-.352849E-02  mag=     2.0000
       N       E                     dE             d eps       ncg     rms          rms(c)
DAV:   1    -0.231602653254E+04    0.43800E-02   -0.59081E-01  4560   0.838E-01    0.187E-01
RMM:   2    -0.231603206167E+04   -0.55291E-02   -0.54426E-02  6008   0.151E-01    0.228E-01
RMM:   3    -0.231603213315E+04   -0.71475E-04   -0.53953E-03  5225   0.607E-02    0.170E-01
RMM:   4    -0.231603184776E+04    0.28539E-03   -0.59667E-04  4481   0.141E-02    0.950E-02
RMM:   5    -0.231603180130E+04    0.46453E-04   -0.14592E-04  3035   0.846E-03    0.732E-02
RMM:   6    -0.231603173312E+04    0.68182E-04   -0.18601E-04  4237   0.994E-03    0.335E-02
RMM:   7    -0.231603173254E+04    0.58481E-06   -0.67621E-05  3068   0.790E-03
  61 F= -.23373108E+04 E0= -.23373108E+04  d E =-.414783E-02  mag=     2.0000
       N       E                     dE             d eps       ncg     rms          rms(c)
DAV:   1    -0.231602402897E+04    0.77041E-02   -0.13230E+00  4492   0.127E+00    0.288E-01
RMM:   2    -0.231603574065E+04   -0.11712E-01   -0.11364E-01  5926   0.227E-01    0.376E-01
RMM:   3    -0.231603582987E+04   -0.89225E-04   -0.11902E-02  5441   0.968E-02    0.284E-01
RMM:   4    -0.231603504648E+04    0.78339E-03   -0.12660E-03  5403   0.217E-02    0.123E-01
RMM:   5    -0.231603500830E+04    0.38178E-04   -0.38192E-04  4044   0.126E-02    0.123E-01
RMM:   6    -0.231603480763E+04    0.20067E-03   -0.40281E-04  4516   0.139E-02    0.366E-02
RMM:   7    -0.231603481493E+04   -0.72936E-05   -0.11813E-04  3409   0.111E-02    0.425E-02
RMM:   8    -0.231603479195E+04    0.22981E-04   -0.33704E-05  2906   0.466E-03    0.105E-02
RMM:   9    -0.231603478935E+04    0.25939E-05   -0.68914E-06  2904   0.321E-03
  62 F= -.23373136E+04 E0= -.23373136E+04  d E =-.278857E-02  mag=     2.0000
       N       E                     dE             d eps       ncg     rms          rms(c)
DAV:   1    -0.231603165943E+04    0.31325E-02   -0.44500E-01  4528   0.734E-01    0.165E-01
RMM:   2    -0.231603560016E+04   -0.39407E-02   -0.38135E-02  5941   0.131E-01    0.218E-01
RMM:   3    -0.231603561979E+04   -0.19629E-04   -0.39570E-03  5254   0.553E-02    0.162E-01
RMM:   4    -0.231603536244E+04    0.25734E-03   -0.41868E-04  4252   0.126E-02    0.706E-02
RMM:   5    -0.231603535089E+04    0.11549E-04   -0.12670E-04  3052   0.806E-03    0.724E-02
RMM:   6    -0.231603527766E+04    0.73236E-04   -0.14553E-04  4103   0.916E-03    0.183E-02
RMM:   7    -0.231603527877E+04   -0.11116E-05   -0.34271E-05  2989   0.706E-03
  63 F= -.23373139E+04 E0= -.23373139E+04  d E =-.312417E-02  mag=     2.0000
       N       E                     dE             d eps       ncg     rms          rms(c)
DAV:   1    -0.231602969472E+04    0.55829E-02   -0.10236E+00  4496   0.111E+00    0.232E-01
RMM:   2    -0.231603833098E+04   -0.86363E-02   -0.84263E-02  5989   0.195E-01    0.307E-01
RMM:   3    -0.231603845291E+04   -0.12193E-03   -0.86434E-03  5440   0.804E-02    0.232E-01
RMM:   4    -0.231603794769E+04    0.50522E-03   -0.88796E-04  5203   0.179E-02    0.100E-01
RMM:   5    -0.231603793961E+04    0.80827E-05   -0.25731E-04  3488   0.104E-02    0.108E-01
RMM:   6    -0.231603779385E+04    0.14576E-03   -0.31219E-04  4481   0.124E-02    0.266E-02
RMM:   7    -0.231603779353E+04    0.32358E-06   -0.59404E-05  3112   0.895E-03
  64 F= -.23373163E+04 E0= -.23373163E+04  d E =-.233370E-02  mag=     2.0000
       N       E                     dE             d eps       ncg     rms          rms(c)
DAV:   1    -0.231602665229E+04    0.11142E-01   -0.15395E+00  4492   0.136E+00    0.286E-01
RMM:   2    -0.231603961742E+04   -0.12965E-01   -0.12690E-01  5974   0.239E-01    0.374E-01
RMM:   3    -0.231603984691E+04   -0.22949E-03   -0.13028E-02  5473   0.989E-02    0.287E-01
RMM:   4    -0.231603908314E+04    0.76377E-03   -0.13443E-03  5534   0.221E-02    0.124E-01
RMM:   5    -0.231603906588E+04    0.17261E-04   -0.38877E-04  4017   0.123E-02    0.132E-01
RMM:   6    -0.231603884667E+04    0.21921E-03   -0.46481E-04  4554   0.146E-02    0.316E-02
RMM:   7    -0.231603884150E+04    0.51667E-05   -0.76652E-05  3337   0.102E-02
  65 F= -.23373171E+04 E0= -.23373171E+04  d E =-.316290E-02  mag=     2.0000
       N       E                     dE             d eps       ncg     rms          rms(c)
DAV:   1    -0.231603503324E+04    0.38134E-02   -0.93022E-01  4496   0.106E+00    0.246E-01
RMM:   2    -0.231604130416E+04   -0.62709E-02   -0.63634E-02  5899   0.184E-01    0.217E-01
RMM:   3    -0.231604180101E+04   -0.49685E-03   -0.61921E-03  5213   0.771E-02    0.247E-01
RMM:   4    -0.231604111711E+04    0.68390E-03   -0.73469E-04  5257   0.185E-02    0.105E-01
RMM:   5    -0.231604110692E+04    0.10191E-04   -0.26737E-04  3370   0.112E-02    0.104E-01
RMM:   6    -0.231604098564E+04    0.12128E-03   -0.26302E-04  4506   0.120E-02    0.356E-02
RMM:   7    -0.231604098649E+04   -0.85274E-06   -0.80044E-05  3087   0.915E-03
  66 F= -.23373192E+04 E0= -.23373192E+04  d E =-.205288E-02  mag=     2.0000
       N       E                     dE             d eps       ncg     rms          rms(c)
DAV:   1    -0.231603980584E+04    0.11798E-02   -0.21335E-01  4592   0.508E-01    0.119E-01
RMM:   2    -0.231604123390E+04   -0.14281E-02   -0.14674E-02  5884   0.898E-02    0.971E-02
RMM:   3    -0.231604137133E+04   -0.13743E-03   -0.14629E-03  4618   0.380E-02    0.117E-01
RMM:   4    -0.231604121264E+04    0.15869E-03   -0.16591E-04  3175   0.934E-03    0.481E-02
RMM:   5    -0.231604121775E+04   -0.51134E-05   -0.65989E-05  2944   0.632E-03
  67 F= -.23373193E+04 E0= -.23373193E+04  d E =-.224059E-02  mag=     2.0000
       N       E                     dE             d eps       ncg     rms          rms(c)
DAV:   1    -0.231603833218E+04    0.28805E-02   -0.71339E-01  4496   0.929E-01    0.229E-01
RMM:   2    -0.231604319417E+04   -0.48620E-02   -0.50165E-02  5998   0.164E-01    0.183E-01
RMM:   3    -0.231604363188E+04   -0.43770E-03   -0.52919E-03  5588   0.679E-02    0.211E-01
RMM:   4    -0.231604305877E+04    0.57311E-03   -0.58722E-04  5130   0.171E-02    0.718E-02
RMM:   5    -0.231604316459E+04   -0.10582E-03   -0.25856E-04  4138   0.107E-02    0.141E-01
RMM:   6    -0.231604297377E+04    0.19082E-03   -0.22191E-04  4339   0.106E-02    0.193E-02
RMM:   7    -0.231604297468E+04   -0.91031E-06   -0.37820E-05  2967   0.654E-03
  68 F= -.23373211E+04 E0= -.23373211E+04  d E =-.172423E-02  mag=     2.0000
       N       E                     dE             d eps       ncg     rms          rms(c)
DAV:   1    -0.231604197209E+04    0.10017E-02   -0.17724E-01  4576   0.464E-01    0.116E-01
RMM:   2    -0.231604319235E+04   -0.12203E-02   -0.12667E-02  5958   0.834E-02    0.877E-02
RMM:   3    -0.231604330992E+04   -0.11757E-03   -0.12858E-03  4586   0.327E-02    0.104E-01
RMM:   4    -0.231604316647E+04    0.14346E-03   -0.13844E-04  3093   0.882E-03    0.352E-02
RMM:   5    -0.231604317656E+04   -0.10099E-04   -0.65775E-05  2939   0.655E-03    0.554E-02
RMM:   6    -0.231604315012E+04    0.26448E-04   -0.40554E-05  2923   0.586E-03    0.203E-02
RMM:   7    -0.231604314880E+04    0.13177E-05   -0.15747E-05  2889   0.459E-03
  69 F= -.23373212E+04 E0= -.23373212E+04  d E =-.188279E-02  mag=     2.0000
       N       E                     dE             d eps       ncg     rms          rms(c)
DAV:   1    -0.231603946872E+04    0.36814E-02   -0.64724E-01  4496   0.878E-01    0.210E-01
RMM:   2    -0.231604498655E+04   -0.55178E-02   -0.55501E-02  6150   0.164E-01    0.201E-01
RMM:   3    -0.231604519731E+04   -0.21076E-03   -0.55111E-03  5634   0.618E-02    0.172E-01
RMM:   4    -0.231604479078E+04    0.40654E-03   -0.56130E-04  4743   0.155E-02    0.718E-02
RMM:   5    -0.231604479331E+04   -0.25314E-05   -0.21854E-04  3554   0.103E-02    0.867E-02
RMM:   6    -0.231604474072E+04    0.52586E-04   -0.18028E-04  4124   0.957E-03    0.581E-02
RMM:   7    -0.231604472427E+04    0.16453E-04   -0.71701E-05  2997   0.759E-03    0.363E-02
RMM:   8    -0.231604470841E+04    0.15855E-04   -0.13385E-05  2884   0.392E-03    0.762E-03
RMM:   9    -0.231604470768E+04    0.73088E-06   -0.41475E-06  2874   0.254E-03
  70 F= -.23373226E+04 E0= -.23373226E+04  d E =-.138506E-02  mag=     2.0000
       N       E                     dE             d eps       ncg     rms          rms(c)
DAV:   1    -0.231604456210E+04    0.14631E-03   -0.28578E-02  4752   0.185E-01    0.441E-02
RMM:   2    -0.231604480817E+04   -0.24607E-03   -0.24728E-03  6017   0.351E-02    0.419E-02
RMM:   3    -0.231604481726E+04   -0.90875E-05   -0.23919E-04  3097   0.134E-02    0.361E-02
RMM:   4    -0.231604479950E+04    0.17763E-04   -0.25647E-05  2911   0.445E-03    0.156E-02
RMM:   5    -0.231604479956E+04   -0.61729E-07   -0.11048E-05  2880   0.279E-03
  71 F= -.23373227E+04 E0= -.23373227E+04  d E =-.144090E-02  mag=     2.0000
       N       E                     dE             d eps       ncg     rms          rms(c)
DAV:   1    -0.231604246031E+04    0.23392E-02   -0.46564E-01  4496   0.757E-01    0.195E-01
RMM:   2    -0.231604670761E+04   -0.42473E-02   -0.41765E-02  6034   0.147E-01    0.199E-01
RMM:   3    -0.231604682568E+04   -0.11807E-03   -0.39727E-03  5428   0.530E-02    0.177E-01
RMM:   4    -0.231604645836E+04    0.36733E-03   -0.46791E-04  4535   0.141E-02    0.863E-02
RMM:   5    -0.231604643302E+04    0.25341E-04   -0.14610E-04  3033   0.904E-03    0.738E-02
RMM:   6    -0.231604638651E+04    0.46510E-04   -0.15589E-04  4193   0.954E-03    0.417E-02
RMM:   7    -0.231604637019E+04    0.16312E-04   -0.58702E-05  3010   0.773E-03    0.227E-02
RMM:   8    -0.231604636390E+04    0.62989E-05   -0.97072E-06  2874   0.332E-03
  72 F= -.23373240E+04 E0= -.23373240E+04  d E =-.128984E-02  mag=     2.0000
       N       E                     dE             d eps       ncg     rms          rms(c)
DAV:   1    -0.231604599680E+04    0.37339E-03   -0.66117E-02  4544   0.285E-01    0.749E-02
RMM:   2    -0.231604663736E+04   -0.64055E-03   -0.60470E-03  6009   0.560E-02    0.913E-02
RMM:   3    -0.231604662047E+04    0.16888E-04   -0.55793E-04  3543   0.184E-02    0.700E-02
RMM:   4    -0.231604657411E+04    0.46359E-04   -0.72542E-05  2932   0.635E-03    0.377E-02
RMM:   5    -0.231604656427E+04    0.98438E-05   -0.23049E-05  2898   0.401E-03
  73 F= -.23373241E+04 E0= -.23373241E+04  d E =-.138701E-02  mag=     2.0000
       N       E                     dE             d eps       ncg     rms          rms(c)
DAV:   1    -0.231604425100E+04    0.23231E-02   -0.36852E-01  4492   0.669E-01    0.164E-01
RMM:   2    -0.231604842823E+04   -0.41772E-02   -0.39067E-02  6179   0.135E-01    0.243E-01
RMM:   3    -0.231604819878E+04    0.22945E-03   -0.36859E-03  5310   0.460E-02    0.140E-01
RMM:   4    -0.231604803249E+04    0.16629E-03   -0.42398E-04  3902   0.119E-02    0.800E-02
RMM:   5    -0.231604798994E+04    0.42546E-04   -0.10605E-04  3016   0.757E-03    0.593E-02
RMM:   6    -0.231604794302E+04    0.46924E-04   -0.13210E-04  4139   0.901E-03    0.181E-02
RMM:   7    -0.231604794335E+04   -0.32849E-06   -0.25839E-05  2922   0.702E-03
  74 F= -.23373252E+04 E0= -.23373252E+04  d E =-.117650E-02  mag=     2.0000
       N       E                     dE             d eps       ncg     rms          rms(c)
DAV:   1    -0.231604356130E+04    0.43817E-02   -0.49519E-01  4492   0.776E-01    0.193E-01
RMM:   2    -0.231604932146E+04   -0.57602E-02   -0.52949E-02  6119   0.156E-01    0.300E-01
RMM:   3    -0.231604888616E+04    0.43529E-03   -0.50220E-03  5473   0.564E-02    0.167E-01
RMM:   4    -0.231604866539E+04    0.22077E-03   -0.60929E-04  4493   0.138E-02    0.942E-02
RMM:   5    -0.231604859450E+04    0.70886E-04   -0.15102E-04  3056   0.842E-03    0.658E-02
RMM:   6    -0.231604856061E+04    0.33889E-04   -0.16936E-04  4211   0.954E-03    0.475E-02
RMM:   7    -0.231604853466E+04    0.25947E-04   -0.68368E-05  3049   0.811E-03    0.209E-02
RMM:   8    -0.231604852918E+04    0.54886E-05   -0.10508E-05  2883   0.336E-03
  75 F= -.23373256E+04 E0= -.23373256E+04  d E =-.152769E-02  mag=     2.0000
       N       E                     dE             d eps       ncg     rms          rms(c)
DAV:   1    -0.231604650911E+04    0.20256E-02   -0.27146E-01  4496   0.566E-01    0.144E-01
RMM:   2    -0.231605011785E+04   -0.36087E-02   -0.32571E-02  6134   0.117E-01    0.243E-01
RMM:   3    -0.231604975552E+04    0.36232E-03   -0.30668E-03  5065   0.388E-02    0.114E-01
RMM:   4    -0.231604966754E+04    0.87984E-04   -0.37419E-04  3258   0.102E-02    0.749E-02
RMM:   5    -0.231604961928E+04    0.48255E-04   -0.84321E-05  2970   0.674E-03    0.474E-02
RMM:   6    -0.231604960340E+04    0.15884E-04   -0.10051E-04  3772   0.732E-03    0.351E-02
[...]
DAV:   1    -0.231607874154E+04   -0.49605E-05   -0.60607E-04  4168   0.221E-02    0.856E-03
RMM:   2    -0.231607875839E+04   -0.16848E-04   -0.15466E-04  3320   0.675E-03    0.142E-02
RMM:   3    -0.231607875768E+04    0.71467E-06   -0.19329E-05  2281   0.427E-03
 234 F= -.23373466E+04 E0= -.23373466E+04  d E =-.102157E-04  mag=     2.0000
       N       E                     dE             d eps       ncg     rms          rms(c)
DAV:   1    -0.231607877351E+04   -0.15120E-04   -0.32888E-04  4164   0.165E-02    0.749E-03
RMM:   2    -0.231607878462E+04   -0.11112E-04   -0.82385E-05  2859   0.486E-03    0.176E-02
RMM:   3    -0.231607878150E+04    0.31244E-05   -0.10543E-05  2285   0.333E-03
 235 F= -.23373466E+04 E0= -.23373466E+04  d E =-.108379E-04  mag=     2.0000
       N       E                     dE             d eps       ncg     rms          rms(c)
DAV:   1    -0.231607877235E+04    0.12279E-04   -0.29601E-03  4392   0.492E-02    0.190E-02
RMM:   2    -0.231607885042E+04   -0.78077E-04   -0.69742E-04  4559   0.132E-02    0.341E-02
RMM:   3    -0.231607884299E+04    0.74364E-05   -0.76286E-05  2808   0.622E-03
 236 F= -.23373466E+04 E0= -.23373466E+04  d E =-.333599E-04  mag=     2.0000
       N       E                     dE             d eps       ncg     rms          rms(c)
DAV:   1    -0.231607884902E+04    0.14027E-05   -0.25002E-04  4952   0.143E-02    0.122E-02
RMM:   2    -0.231607887032E+04   -0.21299E-04   -0.79498E-05  2948   0.454E-03    0.387E-02
RMM:   3    -0.231607885435E+04    0.15970E-04   -0.13640E-05  2369   0.318E-03    0.664E-03
RMM:   4    -0.231607885418E+04    0.17157E-06   -0.20850E-06  1275   0.102E-03
 237 F= -.23373466E+04 E0= -.23373466E+04  d E =-.334170E-04  mag=     2.0000
       N       E                     dE             d eps       ncg     rms          rms(c)
DAV:   1    -0.231607885382E+04    0.53382E-06   -0.94434E-04  4216   0.279E-02    0.101E-02
RMM:   2    -0.231607887543E+04   -0.21613E-04   -0.22232E-04  3557   0.758E-03    0.926E-03
RMM:   3    -0.231607887706E+04   -0.16313E-05   -0.25197E-05  2368   0.453E-03
 238 F= -.23373466E+04 E0= -.23373466E+04  d E =-.340489E-04  mag=     2.0000
       N       E                     dE             d eps       ncg     rms          rms(c)
DAV:   1    -0.231607888713E+04   -0.11705E-04   -0.51701E-04  4208   0.197E-02    0.766E-03
RMM:   2    -0.231607890151E+04   -0.14377E-04   -0.13161E-04  3186   0.577E-03    0.138E-02
RMM:   3    -0.231607890080E+04    0.70478E-06   -0.16405E-05  2328   0.382E-03
 239 F= -.23373466E+04 E0= -.23373466E+04  d E =-.719001E-05  mag=     2.0000
       N       E                     dE             d eps       ncg     rms          rms(c)
DAV:   1    -0.231607885228E+04    0.49231E-04   -0.46626E-03  4360   0.587E-02    0.223E-02
RMM:   2    -0.231607897565E+04   -0.12337E-03   -0.11475E-03  4891   0.161E-02    0.359E-02
RMM:   3    -0.231607896951E+04    0.61396E-05   -0.12152E-04  2886   0.693E-03    0.139E-02
RMM:   4    -0.231607896755E+04    0.19635E-05   -0.12507E-05  2504   0.220E-03
 240 F= -.23373467E+04 E0= -.23373467E+04  d E =-.242781E-04  mag=     2.0000
       N       E                     dE             d eps       ncg     rms          rms(c)
DAV:   1    -0.231607862769E+04    0.34183E-03   -0.18577E-02  4488   0.117E-01    0.428E-02
RMM:   2    -0.231607908600E+04   -0.45832E-03   -0.44856E-03  6084   0.311E-02    0.576E-02
RMM:   3    -0.231607909515E+04   -0.91459E-05   -0.47929E-04  3037   0.126E-02    0.341E-02
RMM:   4    -0.231607908558E+04    0.95646E-05   -0.47002E-05  2942   0.369E-03
 241 F= -.23373467E+04 E0= -.23373467E+04  d E =-.431395E-04  mag=     2.0000
       N       E                     dE             d eps       ncg     rms          rms(c)
DAV:   1    -0.231607909377E+04    0.13726E-05   -0.15027E-03  4320   0.339E-02    0.175E-02
RMM:   2    -0.231607914509E+04   -0.51317E-04   -0.35270E-04  3956   0.917E-03    0.433E-02
RMM:   3    -0.231607912854E+04    0.16551E-04   -0.41786E-05  2767   0.496E-03    0.115E-02
RMM:   4    -0.231607912762E+04    0.92536E-06   -0.51163E-06  2266   0.153E-03
 242 F= -.23373467E+04 E0= -.23373467E+04  d E =-.154275E-04  mag=     2.0000
       N       E                     dE             d eps       ncg     rms          rms(c)
DAV:   1    -0.231607893609E+04    0.19245E-03   -0.13553E-02  4488   0.101E-01    0.390E-02
RMM:   2    -0.231607928203E+04   -0.34594E-03   -0.32415E-03  5813   0.268E-02    0.606E-02
RMM:   3    -0.231607926783E+04    0.14198E-04   -0.34333E-04  2995   0.107E-02    0.250E-02
RMM:   4    -0.231607926142E+04    0.64130E-05   -0.33680E-05  2889   0.334E-03
 243 F= -.23373467E+04 E0= -.23373467E+04  d E =-.694756E-04  mag=     2.0000
       N       E                     dE             d eps       ncg     rms          rms(c)
DAV:   1    -0.231607817103E+04    0.10968E-02   -0.54392E-02  4488   0.203E-01    0.735E-02
RMM:   2    -0.231607950124E+04   -0.13302E-02   -0.12865E-02  6451   0.534E-02    0.103E-01
RMM:   3    -0.231607952070E+04   -0.19459E-04   -0.13742E-03  3321   0.204E-02    0.673E-02
RMM:   4    -0.231607948895E+04    0.31751E-04   -0.14230E-04  2964   0.595E-03    0.383E-02
RMM:   5    -0.231607947779E+04    0.11161E-04   -0.21811E-05  2787   0.267E-03    0.274E-02
RMM:   6    -0.231607947047E+04    0.73158E-05   -0.25463E-05  2904   0.326E-03
 244 F= -.23373468E+04 E0= -.23373468E+04  d E =-.119300E-03  mag=     2.0000
       N       E                     dE             d eps       ncg     rms          rms(c)
DAV:   1    -0.231607452261E+04    0.49552E-02   -0.21726E-01  4488   0.405E-01    0.148E-01
RMM:   2    -0.231607965939E+04   -0.51368E-02   -0.51662E-02  6546   0.107E-01    0.160E-01
RMM:   3    -0.231607993441E+04   -0.27502E-03   -0.54212E-03  4755   0.404E-02    0.122E-01
RMM:   4    -0.231607976733E+04    0.16708E-03   -0.52149E-04  3066   0.102E-02    0.562E-02
RMM:   5    -0.231607975729E+04    0.10033E-04   -0.69296E-05  2979   0.464E-03    0.558E-02
RMM:   6    -0.231607972893E+04    0.28364E-04   -0.62682E-05  2989   0.484E-03    0.298E-02
RMM:   7    -0.231607972711E+04    0.18146E-05   -0.45097E-05  2983   0.482E-03
 245 F= -.23373467E+04 E0= -.23373467E+04  d E =-.584875E-04  mag=     2.0000
       N       E                     dE             d eps       ncg     rms          rms(c)
DAV:   1    -0.231607743834E+04    0.22906E-02   -0.90535E-02  4488   0.261E-01    0.936E-02
RMM:   2    -0.231607957636E+04   -0.21380E-02   -0.21206E-02  6449   0.685E-02    0.108E-01
RMM:   3    -0.231607966370E+04   -0.87342E-04   -0.22308E-03  3695   0.263E-02    0.725E-02
RMM:   4    -0.231607960230E+04    0.61404E-04   -0.21047E-04  2997   0.710E-03    0.343E-02
RMM:   5    -0.231607959944E+04    0.28526E-05   -0.24212E-05  2862   0.306E-03
 246 F= -.23373468E+04 E0= -.23373468E+04  d E =-.134284E-03  mag=     2.0000
       N       E                     dE             d eps       ncg     rms          rms(c)
DAV:   1    -0.231607938735E+04    0.21494E-03   -0.59863E-03  4440   0.677E-02    0.245E-02
RMM:   2    -0.231607953278E+04   -0.14542E-03   -0.14235E-03  5131   0.182E-02    0.327E-02
RMM:   3    -0.231607953710E+04   -0.43247E-05   -0.15214E-04  2923   0.762E-03    0.227E-02
RMM:   4    -0.231607953391E+04    0.31930E-05   -0.16189E-05  2840   0.259E-03
 247 F= -.23373468E+04 E0= -.23373468E+04  d E =-.122427E-03  mag=     2.0000
       N       E                     dE             d eps       ncg     rms          rms(c)
DAV:   1    -0.231607949326E+04    0.43838E-04   -0.48742E-03  4296   0.588E-02    0.279E-02
RMM:   2    -0.231607962781E+04   -0.13454E-03   -0.11973E-03  4954   0.161E-02    0.477E-02
RMM:   3    -0.231607961248E+04    0.15326E-04   -0.13140E-04  2899   0.694E-03    0.190E-02
RMM:   4    -0.231607961076E+04    0.17223E-05   -0.15074E-05  2413   0.247E-03
 248 F= -.23373468E+04 E0= -.23373468E+04  d E =-.278490E-04  mag=     2.0000
       N       E                     dE             d eps       ncg     rms          rms(c)
DAV:   1    -0.231607876502E+04    0.84746E-03   -0.43273E-02  4488   0.176E-01    0.636E-02
RMM:   2    -0.231607980099E+04   -0.10360E-02   -0.10413E-02  6384   0.469E-02    0.678E-02
RMM:   3    -0.231607986438E+04   -0.63392E-04   -0.11040E-03  3224   0.181E-02    0.517E-02
RMM:   4    -0.231607983486E+04    0.29526E-04   -0.10562E-04  2958   0.531E-03    0.247E-02
RMM:   5    -0.231607983354E+04    0.13198E-05   -0.12565E-05  2699   0.201E-03
 249 F= -.23373469E+04 E0= -.23373469E+04  d E =-.103808E-03  mag=     2.0000
       N       E                     dE             d eps       ncg     rms          rms(c)
DAV:   1    -0.231607596798E+04    0.38669E-02   -0.17238E-01  4488   0.351E-01    0.127E-01
RMM:   2    -0.231608009683E+04   -0.41288E-02   -0.41515E-02  6578   0.941E-02    0.138E-01
RMM:   3    -0.231608033511E+04   -0.23828E-03   -0.43747E-03  4311   0.346E-02    0.102E-01
RMM:   4    -0.231608021286E+04    0.12225E-03   -0.41137E-04  3062   0.912E-03    0.432E-02
RMM:   5    -0.231608021229E+04    0.56720E-06   -0.55518E-05  2985   0.455E-03
 250 F= -.23373470E+04 E0= -.23373470E+04  d E =-.189841E-03  mag=     2.0000
       N       E                     dE             d eps       ncg     rms          rms(c)
DAV:   1    -0.231607960195E+04    0.61091E-03   -0.33766E-02  4488   0.161E-01    0.581E-02
RMM:   2    -0.231608041038E+04   -0.80843E-03   -0.78316E-03  6282   0.427E-02    0.859E-02
RMM:   3    -0.231608042807E+04   -0.17686E-04   -0.84599E-04  3135   0.164E-02    0.577E-02
RMM:   4    -0.231608040729E+04    0.20777E-04   -0.87460E-05  2947   0.513E-03    0.307E-02
RMM:   5    -0.231608040092E+04    0.63716E-05   -0.15679E-05  2770   0.234E-03
 251 F= -.23373471E+04 E0= -.23373471E+04  d E =-.748835E-04  mag=     2.0000
       N       E                     dE             d eps       ncg     rms          rms(c)
DAV:   1    -0.231607892813E+04    0.14792E-02   -0.72872E-02  4488   0.236E-01    0.840E-02
RMM:   2    -0.231608058611E+04   -0.16580E-02   -0.16925E-02  6490   0.618E-02    0.807E-02
RMM:   3    -0.231608070756E+04   -0.12144E-03   -0.17818E-03  3524   0.231E-02    0.695E-02
RMM:   4    -0.231608065149E+04    0.56061E-04   -0.17430E-04  2995   0.691E-03    0.293E-02
RMM:   5    -0.231608065160E+04   -0.11080E-06   -0.26268E-05  2881   0.320E-03
 252 F= -.23373471E+04 E0= -.23373471E+04  d E =-.159010E-03  mag=     2.0000
       N       E                     dE             d eps       ncg     rms          rms(c)
DAV:   1    -0.231607402562E+04    0.66259E-02   -0.29399E-01  4488   0.474E-01    0.169E-01
RMM:   2    -0.231608075981E+04   -0.67342E-02   -0.67893E-02  6541   0.124E-01    0.179E-01
RMM:   3    -0.231608117920E+04   -0.41940E-03   -0.72031E-03  5048   0.461E-02    0.142E-01
RMM:   4    -0.231608095271E+04    0.22649E-03   -0.68610E-04  3120   0.115E-02    0.636E-02
RMM:   5    -0.231608095534E+04   -0.26303E-05   -0.98672E-05  3048   0.563E-03
 253 F= -.23373471E+04 E0= -.23373471E+04  d E =-.131261E-03  mag=     2.0000
       N       E                     dE             d eps       ncg     rms          rms(c)
DAV:   1    -0.231607651255E+04    0.44402E-02   -0.18073E-01  4488   0.370E-01    0.138E-01
RMM:   2    -0.231608058485E+04   -0.40723E-02   -0.41556E-02  6475   0.972E-02    0.124E-01
RMM:   3    -0.231608091089E+04   -0.32604E-03   -0.43747E-03  4568   0.362E-02    0.110E-01
RMM:   4    -0.231608075147E+04    0.15943E-03   -0.41178E-04  3049   0.947E-03    0.398E-02
RMM:   5    -0.231608073836E+04    0.13110E-04   -0.43663E-05  2958   0.418E-03    0.362E-02
RMM:   6    -0.231608072924E+04    0.91150E-05   -0.24760E-05  2840   0.327E-03
 254 F= -.23373471E+04 E0= -.23373471E+04  d E =-.162207E-03  mag=     2.0000
       N       E                     dE             d eps       ncg     rms          rms(c)
DAV:   1    -0.231608060513E+04    0.13322E-03   -0.33668E-03  4360   0.515E-02    0.255E-02
RMM:   2    -0.231608071540E+04   -0.11027E-03   -0.84123E-04  4633   0.141E-02    0.523E-02
RMM:   3    -0.231608068580E+04    0.29606E-04   -0.10343E-04  2931   0.676E-03    0.219E-02
RMM:   4    -0.231608068328E+04    0.25225E-05   -0.15730E-05  2638   0.238E-03
 255 F= -.23373471E+04 E0= -.23373471E+04  d E =-.152798E-03  mag=     2.0000
       N       E                     dE             d eps       ncg     rms          rms(c)
DAV:   1    -0.231608041291E+04    0.27289E-03   -0.18885E-02  4488   0.124E-01    0.453E-02
RMM:   2    -0.231608081973E+04   -0.40682E-03   -0.41743E-03  6173   0.318E-02    0.408E-02
RMM:   3    -0.231608085292E+04   -0.33198E-04   -0.44022E-04  3029   0.127E-02    0.388E-02
RMM:   4    -0.231608083350E+04    0.19421E-04   -0.42464E-05  2913   0.414E-03    0.132E-02
RMM:   5    -0.231608083352E+04   -0.20227E-07   -0.67107E-06  2570   0.170E-03
 256 F= -.23373472E+04 E0= -.23373472E+04  d E =-.647421E-04  mag=     2.0000
       N       E                     dE             d eps       ncg     rms          rms(c)
DAV:   1    -0.231608038172E+04    0.45178E-03   -0.25853E-02  4488   0.145E-01    0.508E-02
RMM:   2    -0.231608094261E+04   -0.56088E-03   -0.57069E-03  6314   0.370E-02    0.488E-02
RMM:   3    -0.231608098398E+04   -0.41368E-04   -0.60708E-04  3076   0.144E-02    0.430E-02
RMM:   4    -0.231608096253E+04    0.21449E-04   -0.59188E-05  2946   0.451E-03    0.189E-02
RMM:   5    -0.231608096418E+04   -0.16542E-05   -0.11076E-05  2763   0.206E-03
 257 F= -.23373472E+04 E0= -.23373472E+04  d E =-.949834E-04  mag=     2.0000
       N       E                     dE             d eps       ncg     rms          rms(c)
DAV:   1    -0.231608078317E+04    0.17936E-03   -0.13698E-02  4488   0.107E-01    0.363E-02
RMM:   2    -0.231608106471E+04   -0.28154E-03   -0.28663E-03  6000   0.272E-02    0.355E-02
RMM:   3    -0.231608108433E+04   -0.19623E-04   -0.30523E-04  2970   0.106E-02    0.304E-02
RMM:   4    -0.231608107365E+04    0.10687E-04   -0.29319E-05  2932   0.353E-03    0.132E-02
RMM:   5    -0.231608107507E+04   -0.14273E-05   -0.66641E-06  2732   0.173E-03
 258 F= -.23373473E+04 E0= -.23373473E+04  d E =-.388312E-04  mag=     2.0000
       N       E                     dE             d eps       ncg     rms          rms(c)
DAV:   1    -0.231608105682E+04    0.16823E-04   -0.23730E-03  4576   0.446E-02    0.162E-02
RMM:   2    -0.231608110984E+04   -0.53016E-04   -0.50398E-04  4229   0.115E-02    0.257E-02
RMM:   3    -0.231608110885E+04    0.99005E-06   -0.55367E-05  2836   0.558E-03
 259 F= -.23373473E+04 E0= -.23373473E+04  d E =-.425626E-04  mag=     2.0000
       N       E                     dE             d eps       ncg     rms          rms(c)
DAV:   1    -0.231608105576E+04    0.54080E-04   -0.79529E-03  4488   0.890E-02    0.314E-02
RMM:   2    -0.231608121049E+04   -0.15473E-03   -0.14195E-03  5915   0.211E-02    0.444E-02
RMM:   3    -0.231608120043E+04    0.10054E-04   -0.15671E-04  2930   0.898E-03    0.205E-02
RMM:   4    -0.231608119500E+04    0.54281E-05   -0.15837E-05  2929   0.279E-03
 260 F= -.23373473E+04 E0= -.23373473E+04  d E =-.364201E-04  mag=     2.0000
       N       E                     dE             d eps       ncg     rms          rms(c)
DAV:   1    -0.231608120033E+04    0.98138E-07   -0.89421E-04  4768   0.300E-02    0.202E-02
RMM:   2    -0.231608126466E+04   -0.64329E-04   -0.20116E-04  3469   0.763E-03    0.718E-02
RMM:   3    -0.231608121365E+04    0.51015E-04   -0.35774E-05  2831   0.455E-03    0.701E-03
RMM:   4    -0.231608121311E+04    0.53973E-06   -0.41249E-06  2404   0.158E-03
 261 F= -.23373473E+04 E0= -.23373473E+04  d E =-.375005E-04  mag=     2.0000
       N       E                     dE             d eps       ncg     rms          rms(c)
DAV:   1    -0.231608119456E+04    0.19088E-04   -0.45512E-03  4488   0.710E-02    0.228E-02
RMM:   2    -0.231608125746E+04   -0.62902E-04   -0.66877E-04  5536   0.157E-02    0.138E-02
RMM:   3    -0.231608126541E+04   -0.79464E-05   -0.73464E-05  2884   0.711E-03
 262 F= -.23373473E+04 E0= -.23373473E+04  d E =-.273756E-04  mag=     2.0000
       N       E                     dE             d eps       ncg     rms          rms(c)
DAV:   1    -0.231608126378E+04   -0.63211E-05   -0.13877E-04  5400   0.123E-02    0.898E-03
RMM:   2    -0.231608126911E+04   -0.53245E-05   -0.25029E-05  2558   0.318E-03
 263 F= -.23373473E+04 E0= -.23373473E+04  d E =-.270490E-04  mag=     2.0000
       N       E                     dE             d eps       ncg     rms          rms(c)
DAV:   1    -0.231608127218E+04   -0.83968E-05   -0.24910E-03  4512   0.543E-02    0.170E-02
RMM:   2    -0.231608130252E+04   -0.30337E-04   -0.32201E-04  4434   0.124E-02    0.110E-02
RMM:   3    -0.231608130603E+04   -0.35185E-05   -0.33185E-05  2768   0.622E-03
 264 F= -.23373474E+04 E0= -.23373474E+04  d E =-.129956E-04  mag=     2.0000
       N       E                     dE             d eps       ncg     rms          rms(c)
DAV:   1    -0.231608130773E+04   -0.52090E-05   -0.15055E-04  5216   0.136E-02    0.768E-03
RMM:   2    -0.231608131127E+04   -0.35447E-05   -0.23661E-05  2547   0.351E-03
 265 F= -.23373474E+04 E0= -.23373474E+04  d E =-.123538E-04  mag=     2.0000
       N       E                     dE             d eps       ncg     rms          rms(c)
DAV:   1    -0.231608129960E+04    0.81290E-05   -0.25015E-03  4488   0.550E-02    0.168E-02
RMM:   2    -0.231608132712E+04   -0.27523E-04   -0.29381E-04  4461   0.126E-02    0.109E-02
RMM:   3    -0.231608133085E+04   -0.37294E-05   -0.33220E-05  2796   0.640E-03
 266 F= -.23373474E+04 E0= -.23373474E+04  d E =-.856875E-05  mag=     2.0000
       N       E                     dE             d eps       ncg     rms          rms(c)
DAV:   1    -0.231608132690E+04    0.21872E-06   -0.52518E-05  4752   0.823E-03    0.669E-03
RMM:   2    -0.231608133034E+04   -0.34398E-05   -0.76866E-06  2435   0.210E-03
 267 F= -.23373474E+04 E0= -.23373474E+04  d E =-.940703E-05  mag=     2.0000
       N       E                     dE             d eps       ncg     rms          rms(c)
DAV:   1    -0.231608131872E+04    0.81858E-05   -0.19336E-03  4492   0.485E-02    0.142E-02
RMM:   2    -0.231608133863E+04   -0.19918E-04   -0.21194E-04  4017   0.105E-02    0.959E-03
RMM:   3    -0.231608134121E+04   -0.25818E-05   -0.22800E-05  2693   0.569E-03
 268 F= -.23373474E+04 E0= -.23373474E+04  d E =-.829786E-05  mag=     2.0000
       N       E                     dE             d eps       ncg     rms          rms(c)
DAV:   1    -0.231608133939E+04   -0.75769E-06   -0.14284E-05  3856   0.467E-03    0.545E-03
RMM:   2    -0.231608134159E+04   -0.21948E-05   -0.44798E-06  2345   0.263E-03
 269 F= -.23373474E+04 E0= -.23373474E+04  d E =-.848469E-05  mag=     2.0000
       N       E                     dE             d eps       ncg     rms          rms(c)
DAV:   1    -0.231608134341E+04   -0.40197E-05   -0.86703E-04  4432   0.327E-02    0.102E-02
RMM:   2    -0.231608135231E+04   -0.88993E-05   -0.92014E-05  3189   0.701E-03
 270 F= -.23373474E+04 E0= -.23373474E+04  d E =-.699327E-05  mag=     2.0000
       N       E                     dE             d eps       ncg     rms          rms(c)
DAV:   1    -0.231608135425E+04   -0.10840E-04   -0.23936E-05  3040   0.643E-03    0.121E-02
RMM:   2    -0.231608137589E+04   -0.21637E-04   -0.28292E-05  2657   0.401E-03    0.463E-02
RMM:   3    -0.231608135343E+04    0.22460E-04   -0.89499E-06  2312   0.241E-03    0.415E-03
RMM:   4    -0.231608135316E+04    0.26953E-06   -0.83971E-07  1650   0.926E-04
 271 F= -.23373474E+04 E0= -.23373474E+04  d E =-.749797E-05  mag=     2.0000
       N       E                     dE             d eps       ncg     rms          rms(c)
DAV:   1    -0.231608136679E+04   -0.13360E-04   -0.34321E-04  4240   0.208E-02    0.724E-03
RMM:   2    -0.231608137002E+04   -0.32333E-05   -0.31788E-05  2489   0.453E-03
 272 F= -.23373474E+04 E0= -.23373474E+04  d E =-.704397E-05  mag=     2.0000
