       N       E                     dE             d eps       ncg     rms          rms(c)
DAV:   1     0.127211681617E+05    0.12721E+05   -0.82299E+05  4392   0.144E+03
DAV:   2    -0.103744124553E+04   -0.13759E+05   -0.13185E+05  5296   0.330E+02
DAV:   3    -0.244750377348E+04   -0.14101E+04   -0.13970E+04  5312   0.112E+02
DAV:   4    -0.249444297260E+04   -0.46939E+02   -0.46724E+02  6576   0.305E+01
DAV:   5    -0.249535755554E+04   -0.91458E+00   -0.91316E+00  5520   0.334E+00    0.170E+02
RMM:   6    -0.146214527855E+04    0.10332E+04   -0.19134E+03  4356   0.385E+01    0.722E+01
RMM:   7    -0.164122507594E+04   -0.17908E+03   -0.27636E+02  4885   0.137E+01    0.480E+01
RMM:   8    -0.169704814805E+04   -0.55823E+02   -0.37052E+01  5234   0.662E+00    0.403E+01
RMM:   9    -0.179358120610E+04   -0.96533E+02   -0.64337E+01  4853   0.737E+00    0.356E+01
RMM:  10    -0.191657444149E+04   -0.12299E+03   -0.60342E+01  5141   0.740E+00    0.192E+01
RMM:  11    -0.201463038146E+04   -0.98056E+02   -0.38257E+01  4783   0.503E+00    0.159E+01
RMM:  12    -0.214171818691E+04   -0.12709E+03   -0.85477E+01  4383   0.696E+00    0.112E+01
RMM:  13    -0.223026434861E+04   -0.88546E+02   -0.73015E+01  4550   0.624E+00    0.734E+00
RMM:  14    -0.227956316202E+04   -0.49299E+02   -0.50253E+01  4678   0.528E+00    0.414E+00
RMM:  15    -0.228743206186E+04   -0.78689E+01   -0.11250E+01  4793   0.265E+00    0.392E+00
RMM:  16    -0.229015433272E+04   -0.27223E+01   -0.34941E+00  4780   0.119E+00    0.152E+00
RMM:  17    -0.229126715716E+04   -0.11128E+01   -0.74296E-01  4782   0.729E-01    0.303E+00
RMM:  18    -0.229128699774E+04   -0.19841E-01   -0.12138E-01  5364   0.214E-01    0.312E+00
RMM:  19    -0.229133125051E+04   -0.44253E-01   -0.27475E-02  4807   0.103E-01    0.335E+00
RMM:  20    -0.229093741004E+04    0.39384E+00   -0.90298E-01  4355   0.393E-01    0.226E+00
RMM:  21    -0.229067588782E+04    0.26152E+00   -0.29796E-01  4365   0.201E-01    0.239E+00
RMM:  22    -0.228921980165E+04    0.14561E+01   -0.10826E+00  4379   0.302E-01    0.344E+00
RMM:  23    -0.229047358357E+04   -0.12538E+01   -0.50616E-01  4375   0.215E-01    0.257E+00
RMM:  24    -0.229178421308E+04   -0.13106E+01   -0.17544E+00  4356   0.444E-01    0.203E+00
RMM:  25    -0.229191109035E+04   -0.12688E+00   -0.20932E-01  4620   0.220E-01    0.303E+00
RMM:  26    -0.229199340887E+04   -0.82319E-01   -0.11098E-01  4905   0.106E-01    0.290E+00
RMM:  27    -0.229198163650E+04    0.11772E-01   -0.51030E-03  4766   0.388E-02    0.295E+00
RMM:  28    -0.229197228712E+04    0.93494E-02   -0.13435E-02  4392   0.453E-02    0.341E+00
RMM:  29    -0.229195434973E+04    0.17937E-01   -0.16533E-02  4500   0.497E-02    0.387E+00
RMM:  30    -0.229195021050E+04    0.41392E-02   -0.23725E-03  4188   0.206E-02    0.390E+00
RMM:  31    -0.229193686872E+04    0.13342E-01   -0.10325E-03  3940   0.128E-02    0.391E+00
RMM:  32    -0.229191589008E+04    0.20979E-01   -0.39786E-03  4043   0.217E-02    0.388E+00
RMM:  33    -0.229204375305E+04   -0.12786E+00   -0.16031E-01  4455   0.140E-01    0.247E+00
RMM:  34    -0.229211172854E+04   -0.67975E-01   -0.34381E-01  4550   0.209E-01    0.113E+00
RMM:  35    -0.229209711796E+04    0.14611E-01   -0.50230E-02  4678   0.967E-02    0.134E+00
RMM:  36    -0.229212151928E+04   -0.24401E-01   -0.26359E-02  4405   0.607E-02    0.778E-01
RMM:  37    -0.229213781914E+04   -0.16300E-01   -0.86206E-03  4413   0.456E-02    0.478E-01
RMM:  38    -0.229214768264E+04   -0.98635E-02   -0.44445E-03  4382   0.420E-02    0.347E-01
RMM:  39    -0.229215658439E+04   -0.89017E-02   -0.59816E-03  4469   0.418E-02    0.221E-01
RMM:  40    -0.229215942442E+04   -0.28400E-02   -0.14468E-03  4422   0.261E-02    0.169E-01
RMM:  41    -0.229216043141E+04   -0.10070E-02   -0.60584E-04  4174   0.143E-02    0.134E-01
RMM:  42    -0.229216150249E+04   -0.10711E-02   -0.60189E-04  3940   0.146E-02    0.171E-01
RMM:  43    -0.229216249818E+04   -0.99569E-03   -0.85087E-04  3971   0.140E-02    0.630E-02
RMM:  44    -0.229216265035E+04   -0.15216E-03   -0.28113E-04  3494   0.883E-03    0.464E-02
RMM:  45    -0.229216274495E+04   -0.94606E-04   -0.41498E-05  2996   0.504E-03    0.268E-02
RMM:  46    -0.229216278609E+04   -0.41140E-04   -0.17368E-05  2828   0.378E-03    0.153E-02
RMM:  47    -0.229216280576E+04   -0.19671E-04   -0.11101E-05  2677   0.291E-03    0.122E-02
RMM:  48    -0.229216281616E+04   -0.10396E-04   -0.69253E-06  2504   0.225E-03    0.297E-03
RMM:  49    -0.229216282301E+04   -0.68482E-05   -0.29503E-06  2397   0.175E-03
   1 F= -.23123615E+04 E0= -.23123615E+04  d E =-.231236E+04  mag=     4.0005
       N       E                     dE             d eps       ncg     rms          rms(c)
DAV:   1    -0.229218077896E+04   -0.17963E-01   -0.10202E+01  4968   0.154E+00    0.127E+00
RMM:   2    -0.229237456440E+04   -0.19379E+00   -0.20270E+00  5984   0.394E-01    0.114E+00
RMM:   3    -0.229238753576E+04   -0.12971E-01   -0.20029E-01  5319   0.187E-01    0.153E+00
RMM:   4    -0.229237616057E+04    0.11375E-01   -0.22264E-02  5213   0.460E-02    0.579E-01
RMM:   5    -0.229237415278E+04    0.20078E-02   -0.74521E-03  4920   0.263E-02    0.221E-01
RMM:   6    -0.229237387908E+04    0.27370E-03   -0.16720E-03  4550   0.168E-02    0.837E-02
RMM:   7    -0.229237385875E+04    0.20332E-04   -0.27579E-04  3471   0.938E-03    0.605E-02
RMM:   8    -0.229237386450E+04   -0.57489E-05   -0.74302E-05  2884   0.529E-03
   2 F= -.23125749E+04 E0= -.23125749E+04  d E =-.213352E+00  mag=     4.0001
       N       E                     dE             d eps       ncg     rms          rms(c)
DAV:   1    -0.229237149843E+04    0.23603E-02   -0.26323E-01  5116   0.242E-01    0.192E-01
RMM:   2    -0.229237618505E+04   -0.46866E-02   -0.49428E-02  6095   0.634E-02    0.132E-01
RMM:   3    -0.229237672395E+04   -0.53890E-03   -0.52883E-03  3284   0.328E-02    0.205E-01
RMM:   4    -0.229237654583E+04    0.17812E-03   -0.53344E-04  2917   0.752E-03    0.838E-02
RMM:   5    -0.229237650920E+04    0.36630E-04   -0.13399E-04  2878   0.480E-03    0.304E-02
RMM:   6    -0.229237652058E+04   -0.11377E-04   -0.28131E-05  2802   0.385E-03    0.118E-02
RMM:   7    -0.229237652675E+04   -0.61765E-05   -0.73130E-06  2728   0.280E-03
   3 F= -.23125780E+04 E0= -.23125780E+04  d E =-.216493E+00  mag=     4.0000
       N       E                     dE             d eps       ncg     rms          rms(c)
DAV:   1    -0.229236512861E+04    0.11392E-01   -0.13219E+00  4560   0.904E-01    0.473E-01
RMM:   2    -0.229239302511E+04   -0.27896E-01   -0.27021E-01  5785   0.195E-01    0.607E-01
RMM:   3    -0.229239446518E+04   -0.14401E-02   -0.28364E-02  5403   0.849E-02    0.516E-01
RMM:   4    -0.229239322238E+04    0.12428E-02   -0.31011E-03  4695   0.218E-02    0.105E-01
RMM:   5    -0.229239308678E+04    0.13559E-03   -0.43987E-04  4312   0.129E-02    0.676E-02
RMM:   6    -0.229239304513E+04    0.41653E-04   -0.21890E-04  4283   0.100E-02    0.746E-02
RMM:   7    -0.229239301146E+04    0.33675E-04   -0.60852E-05  2995   0.841E-03    0.149E-02
RMM:   8    -0.229239300852E+04    0.29328E-05   -0.11631E-05  2811   0.356E-03
   4 F= -.23125952E+04 E0= -.23125952E+04  d E =-.172290E-01  mag=     4.0000
       N       E                     dE             d eps       ncg     rms          rms(c)
DAV:   1    -0.229233995870E+04    0.53053E-01   -0.29015E+00  4496   0.134E+00    0.701E-01
RMM:   2    -0.229240156170E+04   -0.61603E-01   -0.59590E-01  5818   0.291E-01    0.911E-01
RMM:   3    -0.229240436453E+04   -0.28028E-02   -0.64354E-02  5544   0.124E-01    0.723E-01
RMM:   4    -0.229240192404E+04    0.24405E-02   -0.67218E-03  4887   0.317E-02    0.156E-01
RMM:   5    -0.229240161123E+04    0.31281E-03   -0.91639E-04  4720   0.187E-02    0.991E-02
RMM:   6    -0.229240150858E+04    0.10265E-03   -0.49490E-04  4583   0.140E-02    0.106E-01
RMM:   7    -0.229240143239E+04    0.76186E-04   -0.13560E-04  3804   0.105E-02    0.233E-02
RMM:   8    -0.229240142383E+04    0.85613E-05   -0.21173E-05  2866   0.419E-03
   5 F= -.23126047E+04 E0= -.23126047E+04  d E =-.267215E-01  mag=     4.0000
       N       E                     dE             d eps       ncg     rms          rms(c)
DAV:   1    -0.229240264918E+04   -0.12168E-02   -0.27719E-01  4784   0.347E-01    0.205E-01
RMM:   2    -0.229240958988E+04   -0.69407E-02   -0.65300E-02  6123   0.800E-02    0.334E-01
RMM:   3    -0.229240956660E+04    0.23278E-04   -0.60113E-03  4262   0.328E-02    0.183E-01
RMM:   4    -0.229240945044E+04    0.11616E-03   -0.68509E-04  2918   0.849E-03    0.454E-02
RMM:   5    -0.229240943137E+04    0.19068E-04   -0.51346E-05  2838   0.432E-03    0.319E-02
RMM:   6    -0.229240942398E+04    0.73923E-05   -0.40628E-05  2873   0.467E-03
   6 F= -.23126131E+04 E0= -.23126131E+04  d E =-.836362E-02  mag=     4.0000
       N       E                     dE             d eps       ncg     rms          rms(c)
DAV:   1    -0.229236781060E+04    0.41621E-01   -0.24866E+00  4440   0.104E+00    0.617E-01
RMM:   2    -0.229243050528E+04   -0.62695E-01   -0.58793E-01  6016   0.239E-01    0.104E+00
RMM:   3    -0.229242972797E+04    0.77731E-03   -0.58845E-02  5521   0.101E-01    0.506E-01
RMM:   4    -0.229242892318E+04    0.80480E-03   -0.61664E-03  4660   0.231E-02    0.134E-01
RMM:   5    -0.229242873971E+04    0.18347E-03   -0.42827E-04  3862   0.111E-02    0.953E-02
RMM:   6    -0.229242864721E+04    0.92499E-04   -0.34371E-04  4162   0.115E-02    0.379E-02
RMM:   7    -0.229242864289E+04    0.43230E-05   -0.56374E-05  2957   0.809E-03
   7 F= -.23126334E+04 E0= -.23126334E+04  d E =-.286585E-01  mag=     4.0000
       N       E                     dE             d eps       ncg     rms          rms(c)
DAV:   1    -0.229219843709E+04    0.23021E+00   -0.99323E+00  4456   0.209E+00    0.124E+00
RMM:   2    -0.229245394775E+04   -0.25551E+00   -0.23816E+00  6102   0.493E-01    0.215E+00
RMM:   3    -0.229244811020E+04    0.58375E-02   -0.26550E-01  5764   0.204E-01    0.876E-01
RMM:   4    -0.229244642560E+04    0.16846E-02   -0.25079E-02  5050   0.454E-02    0.270E-01
RMM:   5    -0.229244571435E+04    0.71125E-03   -0.17586E-03  4584   0.212E-02    0.203E-01
RMM:   6    -0.229244528528E+04    0.42907E-03   -0.15432E-03  4617   0.221E-02    0.552E-02
RMM:   7    -0.229244527292E+04    0.12362E-04   -0.18845E-04  4137   0.125E-02    0.331E-02
RMM:   8    -0.229244526279E+04    0.10131E-04   -0.35705E-05  3002   0.422E-03    0.244E-02
RMM:   9    -0.229244525486E+04    0.79264E-05   -0.28618E-05  2811   0.421E-03
   8 F= -.23126521E+04 E0= -.23126521E+04  d E =-.473297E-01  mag=     4.0000
       N       E                     dE             d eps       ncg     rms          rms(c)
DAV:   1    -0.229244056463E+04    0.46982E-02   -0.19227E-01  4920   0.291E-01    0.172E-01
RMM:   2    -0.229244547063E+04   -0.49060E-02   -0.46170E-02  6155   0.676E-02    0.278E-01
RMM:   3    -0.229244540500E+04    0.65638E-04   -0.41586E-03  3701   0.265E-02    0.138E-01
RMM:   4    -0.229244533231E+04    0.72690E-04   -0.47585E-04  2875   0.748E-03    0.371E-02
RMM:   5    -0.229244531754E+04    0.14768E-04   -0.33926E-05  2836   0.388E-03    0.282E-02
RMM:   6    -0.229244530795E+04    0.95854E-05   -0.34410E-05  2859   0.438E-03
   9 F= -.23126524E+04 E0= -.23126524E+04  d E =-.476570E-01  mag=     4.0000
       N       E                     dE             d eps       ncg     rms          rms(c)
DAV:   1    -0.229243620868E+04    0.91089E-02   -0.63108E-01  4440   0.545E-01    0.333E-01
RMM:   2    -0.229245289574E+04   -0.16687E-01   -0.16085E-01  5945   0.125E-01    0.528E-01
RMM:   3    -0.229245292461E+04   -0.28867E-04   -0.17277E-02  5245   0.572E-02    0.276E-01
RMM:   4    -0.229245252455E+04    0.40006E-03   -0.16061E-03  3513   0.129E-02    0.733E-02
RMM:   5    -0.229245245484E+04    0.69710E-04   -0.15180E-04  3131   0.724E-03    0.509E-02
RMM:   6    -0.229245243462E+04    0.20227E-04   -0.12004E-04  3575   0.767E-03    0.256E-02
RMM:   7    -0.229245243195E+04    0.26670E-05   -0.21359E-05  2823   0.547E-03
  10 F= -.23126598E+04 E0= -.23126598E+04  d E =-.745103E-02  mag=     4.0000
       N       E                     dE             d eps       ncg     rms          rms(c)
DAV:   1    -0.229235179242E+04    0.10064E+00   -0.41517E+00  4416   0.140E+00    0.855E-01
RMM:   2    -0.229246178801E+04   -0.11000E+00   -0.10541E+00  5909   0.320E-01    0.136E+00
RMM:   3    -0.229246209209E+04   -0.30408E-03   -0.12548E-01  5617   0.148E-01    0.646E-01
RMM:   4    -0.229245992360E+04    0.21685E-02   -0.11142E-02  4838   0.322E-02    0.192E-01
RMM:   5    -0.229245945628E+04    0.46732E-03   -0.97056E-04  4617   0.170E-02    0.141E-01
RMM:   6    -0.229245928211E+04    0.17417E-03   -0.82041E-04  4435   0.164E-02    0.461E-02
RMM:   7    -0.229245927286E+04    0.92491E-05   -0.10949E-04  3389   0.102E-02    0.233E-02
RMM:   8    -0.229245926818E+04    0.46829E-05   -0.29083E-05  2848   0.411E-03
  11 F= -.23126675E+04 E0= -.23126675E+04  d E =-.150878E-01  mag=     4.0000
       N       E                     dE             d eps       ncg     rms          rms(c)
DAV:   1    -0.229244751262E+04    0.11760E-01   -0.76328E-01  4528   0.562E-01    0.367E-01
RMM:   2    -0.229246733993E+04   -0.19827E-01   -0.18537E-01  6000   0.129E-01    0.616E-01
RMM:   3    -0.229246701925E+04    0.32068E-03   -0.21812E-02  5253   0.601E-02    0.265E-01
RMM:   4    -0.229246666885E+04    0.35040E-03   -0.20754E-03  3411   0.129E-02    0.774E-02
RMM:   5    -0.229246659060E+04    0.78247E-04   -0.16999E-04  3071   0.689E-03    0.663E-02
RMM:   6    -0.229246656223E+04    0.28377E-04   -0.14966E-04  3160   0.763E-03    0.160E-02
RMM:   7    -0.229246656402E+04   -0.17952E-05   -0.22424E-05  2830   0.492E-03
  12 F= -.23126751E+04 E0= -.23126751E+04  d E =-.758501E-02  mag=     4.0000
       N       E                     dE             d eps       ncg     rms          rms(c)
DAV:   1    -0.229230694424E+04    0.15962E+00   -0.68557E+00  4400   0.169E+00    0.111E+00
RMM:   2    -0.229249110620E+04   -0.18416E+00   -0.17030E+00  5990   0.389E-01    0.196E+00
RMM:   3    -0.229248321234E+04    0.78939E-02   -0.20648E-01  5688   0.178E-01    0.706E-01
RMM:   4    -0.229248077345E+04    0.24389E-02   -0.18541E-02  4913   0.370E-02    0.236E-01
RMM:   5    -0.229248016480E+04    0.60866E-03   -0.16610E-03  4640   0.190E-02    0.225E-01
RMM:   6    -0.229247985111E+04    0.31368E-03   -0.14850E-03  4393   0.190E-02    0.751E-02
RMM:   7    -0.229247983567E+04    0.15445E-04   -0.17420E-04  3280   0.989E-03    0.468E-02
RMM:   8    -0.229247983920E+04   -0.35328E-05   -0.60792E-05  2859   0.479E-03
  13 F= -.23126891E+04 E0= -.23126891E+04  d E =-.216626E-01  mag=     4.0000
       N       E                     dE             d eps       ncg     rms          rms(c)
DAV:   1    -0.229175765432E+04    0.72218E+00   -0.27489E+01  4382   0.338E+00    0.229E+00
RMM:   2    -0.229253476929E+04   -0.77711E+00   -0.71158E+00  6052   0.801E-01    0.415E+00
RMM:   3    -0.229247812362E+04    0.56646E-01   -0.86862E-01  5794   0.351E-01    0.126E+00
RMM:   4    -0.229247112492E+04    0.69987E-02   -0.77101E-02  5180   0.739E-02    0.508E-01
RMM:   5    -0.229246935399E+04    0.17709E-02   -0.70695E-03  4883   0.376E-02    0.524E-01
RMM:   6    -0.229246769068E+04    0.16633E-02   -0.64698E-03  4763   0.359E-02    0.194E-01
RMM:   7    -0.229246757588E+04    0.11479E-03   -0.96813E-04  4577   0.192E-02    0.994E-02
RMM:   8    -0.229246762753E+04   -0.51642E-04   -0.35232E-04  3935   0.900E-03    0.579E-02
RMM:   9    -0.229246765952E+04   -0.31989E-04   -0.63988E-05  2881   0.664E-03    0.194E-02
RMM:  10    -0.229246769449E+04   -0.34977E-04   -0.32489E-05  2873   0.403E-03    0.857E-03
RMM:  11    -0.229246771344E+04   -0.18945E-04   -0.96893E-06  2808   0.363E-03    0.620E-03
RMM:  12    -0.229246772555E+04   -0.12111E-04   -0.69971E-06  2795   0.263E-03    0.388E-03
RMM:  13    -0.229246773587E+04   -0.10324E-04   -0.58778E-06  2787   0.272E-03    0.232E-03
RMM:  14    -0.229246773942E+04   -0.35462E-05   -0.31709E-06  2631   0.224E-03
  14 F= -.23126784E+04 E0= -.23126784E+04  d E =-.108894E-01  mag=     4.0000
       N       E                     dE             d eps       ncg     rms          rms(c)
DAV:   1    -0.229213105174E+04    0.33668E+00   -0.13719E+01  4388   0.239E+00    0.147E+00
RMM:   2    -0.229244969142E+04   -0.31864E+00   -0.32839E+00  6065   0.558E-01    0.116E+00
RMM:   3    -0.229249802376E+04   -0.48332E-01   -0.43565E-01  5698   0.251E-01    0.151E+00
RMM:   4    -0.229248442331E+04    0.13600E-01   -0.36404E-02  5574   0.569E-02    0.459E-01
RMM:   5    -0.229248250060E+04    0.19227E-02   -0.63046E-03  4751   0.261E-02    0.268E-01
RMM:   6    -0.229248175661E+04    0.74399E-03   -0.40663E-03  4734   0.247E-02    0.201E-01
RMM:   7    -0.229248153819E+04    0.21843E-03   -0.11082E-03  4493   0.190E-02    0.522E-02
RMM:   8    -0.229248154917E+04   -0.10984E-04   -0.16555E-04  3278   0.668E-03    0.341E-02
RMM:   9    -0.229248154871E+04    0.46051E-06   -0.44200E-05  2837   0.530E-03
  15 F= -.23126913E+04 E0= -.23126913E+04  d E =-.238011E-01  mag=     4.0000
       N       E                     dE             d eps       ncg     rms          rms(c)
DAV:   1    -0.229247356329E+04    0.79859E-02   -0.66719E-01  4440   0.468E-01    0.318E-01
RMM:   2    -0.229248934831E+04   -0.15785E-01   -0.14990E-01  6125   0.109E-01    0.456E-01
RMM:   3    -0.229248976212E+04   -0.41382E-03   -0.17192E-02  4946   0.492E-02    0.247E-01
RMM:   4    -0.229248946354E+04    0.29858E-03   -0.17207E-03  3077   0.114E-02    0.737E-02
RMM:   5    -0.229248939916E+04    0.64374E-04   -0.15700E-04  2884   0.595E-03    0.484E-02
RMM:   6    -0.229248938662E+04    0.12542E-04   -0.79567E-05  2903   0.577E-03    0.267E-02
RMM:   7    -0.229248938438E+04    0.22374E-05   -0.23266E-05  2813   0.445E-03
  16 F= -.23126994E+04 E0= -.23126994E+04  d E =-.814506E-02  mag=     4.0000
       N       E                     dE             d eps       ncg     rms          rms(c)
DAV:   1    -0.229236535613E+04    0.12403E+00   -0.60107E+00  4408   0.141E+00    0.100E+00
RMM:   2    -0.229251918323E+04   -0.15383E+00   -0.14058E+00  6157   0.336E-01    0.171E+00
RMM:   3    -0.229251105861E+04    0.81246E-02   -0.15785E-01  5729   0.143E-01    0.582E-01
RMM:   4    -0.229250995332E+04    0.11053E-02   -0.15753E-02  4813   0.315E-02    0.215E-01
RMM:   5    -0.229250951582E+04    0.43750E-03   -0.13110E-03  4266   0.156E-02    0.214E-01
RMM:   6    -0.229250924547E+04    0.27035E-03   -0.11418E-03  4090   0.161E-02    0.739E-02
RMM:   7    -0.229250922862E+04    0.16846E-04   -0.13574E-04  3004   0.767E-03    0.387E-02
RMM:   8    -0.229250923967E+04   -0.11046E-04   -0.44187E-05  2833   0.423E-03    0.217E-02
RMM:   9    -0.229250925018E+04   -0.10513E-04   -0.14270E-05  2810   0.335E-03    0.648E-03
RMM:  10    -0.229250925771E+04   -0.75247E-05   -0.58360E-06  2796   0.232E-03
  17 F= -.23127202E+04 E0= -.23127202E+04  d E =-.288910E-01  mag=     4.0000
       N       E                     dE             d eps       ncg     rms          rms(c)
DAV:   1    -0.229194488386E+04    0.56437E+00   -0.24086E+01  4396   0.281E+00    0.209E+00
RMM:   2    -0.229260759469E+04   -0.66271E+00   -0.59376E+00  6201   0.704E-01    0.384E+00
RMM:   3    -0.229253508084E+04    0.72514E-01   -0.65425E-01  5820   0.284E-01    0.958E-01
RMM:   4    -0.229253496762E+04    0.11322E-03   -0.67186E-02  5020   0.627E-02    0.452E-01
RMM:   5    -0.229253421425E+04    0.75337E-03   -0.57023E-03  4729   0.312E-02    0.551E-01
RMM:   6    -0.229253242832E+04    0.17859E-02   -0.61178E-03  4764   0.312E-02    0.215E-01
RMM:   7    -0.229253219723E+04    0.23109E-03   -0.72995E-04  4122   0.137E-02    0.660E-02
RMM:   8    -0.229253233117E+04   -0.13394E-03   -0.20945E-04  3346   0.777E-03    0.407E-02
RMM:   9    -0.229253240479E+04   -0.73620E-04   -0.44702E-05  2868   0.537E-03    0.164E-02
RMM:  10    -0.229253246032E+04   -0.55528E-04   -0.25538E-05  2834   0.390E-03    0.811E-03
RMM:  11    -0.229253248970E+04   -0.29381E-04   -0.92811E-06  2808   0.339E-03    0.565E-03
RMM:  12    -0.229253251043E+04   -0.20723E-04   -0.66325E-06  2784   0.257E-03    0.372E-03
RMM:  13    -0.229253252460E+04   -0.14171E-04   -0.53368E-06  2740   0.249E-03    0.201E-03
RMM:  14    -0.229253252895E+04   -0.43581E-05   -0.26895E-06  2527   0.205E-03
  18 F= -.23127449E+04 E0= -.23127449E+04  d E =-.536737E-01  mag=     4.0000
       N       E                     dE             d eps       ncg     rms          rms(c)
DAV:   1    -0.228995325033E+04    0.25793E+01   -0.97316E+01  4388   0.568E+00    0.456E+00
RMM:   2    -0.229397545078E+04   -0.40222E+01   -0.28193E+01  6255   0.154E+00    0.175E+01
RMM:   3    -0.229244261181E+04    0.15328E+01   -0.30804E+00  5622   0.571E-01    0.308E+00
RMM:   4    -0.229251009007E+04   -0.67478E-01   -0.35548E-01  4832   0.151E-01    0.152E+00
RMM:   5    -0.229250682495E+04    0.32651E-02   -0.37765E-02  5276   0.727E-02    0.169E+00
RMM:   6    -0.229251370467E+04   -0.68797E-02   -0.14469E-02  4670   0.487E-02    0.115E+00
RMM:   7    -0.229251078539E+04    0.29193E-02   -0.19820E-02  4520   0.542E-02    0.360E-01
RMM:   8    -0.229251053272E+04    0.25267E-03   -0.86354E-03  4912   0.400E-02    0.330E-01
RMM:   9    -0.229251184840E+04   -0.13157E-02   -0.10577E-03  4217   0.188E-02    0.978E-02
RMM:  10    -0.229251265950E+04   -0.81111E-03   -0.31221E-04  3708   0.981E-03    0.367E-02
RMM:  11    -0.229251313255E+04   -0.47305E-03   -0.11850E-04  3425   0.703E-03    0.244E-02
RMM:  12    -0.229251327880E+04   -0.14625E-03   -0.33329E-05  2948   0.502E-03    0.115E-02
RMM:  13    -0.229251341737E+04   -0.13857E-03   -0.26943E-05  2969   0.399E-03    0.849E-03
RMM:  14    -0.229251350522E+04   -0.87848E-04   -0.18996E-05  2872   0.394E-03    0.379E-03
RMM:  15    -0.229251353683E+04   -0.31613E-04   -0.10377E-05  2801   0.324E-03    0.252E-03
RMM:  16    -0.229251354517E+04   -0.83402E-05   -0.45540E-06  2658   0.265E-03
  19 F= -.23127276E+04 E0= -.23127276E+04  d E =-.363056E-01  mag=     3.9986
       N       E                     dE             d eps       ncg     rms          rms(c)
DAV:   1    -0.229135395881E+04    0.11596E+01   -0.47551E+01  4376   0.395E+00    0.262E+00
RMM:   2    -0.229242687965E+04   -0.10729E+01   -0.10922E+01  6251   0.976E-01    0.151E+00
RMM:   3    -0.229254122723E+04   -0.11435E+00   -0.12698E+00  5381   0.398E-01    0.100E+00
RMM:   4    -0.229254061768E+04    0.60955E-03   -0.92481E-02  5436   0.787E-02    0.687E-01
RMM:   5    -0.229254138763E+04   -0.76995E-03   -0.17957E-02  4967   0.396E-02    0.888E-01
RMM:   6    -0.229253583693E+04    0.55507E-02   -0.80267E-03  5043   0.335E-02    0.238E-01
RMM:   7    -0.229253579828E+04    0.38644E-04   -0.29112E-03  4505   0.228E-02    0.132E-01
RMM:   8    -0.229253592223E+04   -0.12395E-03   -0.34359E-04  3905   0.137E-02    0.704E-02
RMM:   9    -0.229253598849E+04   -0.66259E-04   -0.14174E-04  3424   0.693E-03    0.317E-02
RMM:  10    -0.229253602678E+04   -0.38286E-04   -0.56679E-05  2832   0.564E-03    0.126E-02
RMM:  11    -0.229253605649E+04   -0.29713E-04   -0.23191E-05  2837   0.380E-03    0.782E-03
RMM:  12    -0.229253607878E+04   -0.22291E-04   -0.95005E-06  2814   0.334E-03    0.470E-03
RMM:  13    -0.229253609158E+04   -0.12797E-04   -0.63374E-06  2790   0.287E-03    0.275E-03
RMM:  14    -0.229253609837E+04   -0.67947E-05   -0.41442E-06  2724   0.248E-03
  20 F= -.23127493E+04 E0= -.23127493E+04  d E =-.579784E-01  mag=     3.9999
       N       E                     dE             d eps       ncg     rms          rms(c)
DAV:   1    -0.229248716131E+04    0.48930E-01   -0.28236E+00  4400   0.991E-01    0.651E-01
RMM:   2    -0.229254998723E+04   -0.62826E-01   -0.59694E-01  5975   0.228E-01    0.812E-01
RMM:   3    -0.229255191608E+04   -0.19289E-02   -0.68213E-02  5557   0.104E-01    0.426E-01
RMM:   4    -0.229255118543E+04    0.73065E-03   -0.67196E-03  4703   0.228E-02    0.155E-01
RMM:   5    -0.229255093009E+04    0.25534E-03   -0.67143E-04  3931   0.122E-02    0.921E-02
RMM:   6    -0.229255088145E+04    0.48637E-04   -0.32489E-04  3985   0.106E-02    0.601E-02
RMM:   7    -0.229255086925E+04    0.12205E-04   -0.10115E-04  2867   0.786E-03    0.258E-02
RMM:   8    -0.229255086865E+04    0.60003E-06   -0.18488E-05  2811   0.394E-03
  21 F= -.23127643E+04 E0= -.23127643E+04  d E =-.150949E-01  mag=     4.0000
       N       E                     dE             d eps       ncg     rms          rms(c)
DAV:   1    -0.229209161955E+04    0.45925E+00   -0.20571E+01  4390   0.268E+00    0.184E+00
RMM:   2    -0.229259330780E+04   -0.50169E+00   -0.46599E+00  6053   0.656E-01    0.270E+00
RMM:   3    -0.229257035841E+04    0.22949E-01   -0.50617E-01  5754   0.265E-01    0.886E-01
RMM:   4    -0.229256976252E+04    0.59589E-03   -0.51366E-02  5125   0.594E-02    0.417E-01
RMM:   5    -0.229256833216E+04    0.14304E-02   -0.50269E-03  4819   0.314E-02    0.372E-01
RMM:   6    -0.229256748703E+04    0.84513E-03   -0.45278E-03  4785   0.306E-02    0.179E-01
RMM:   7    -0.229256739150E+04    0.95524E-04   -0.59824E-04  4334   0.150E-02    0.738E-02
RMM:   8    -0.229256746383E+04   -0.72325E-04   -0.18905E-04  3404   0.716E-03    0.390E-02
RMM:   9    -0.229256751318E+04   -0.49357E-04   -0.43779E-05  2882   0.546E-03    0.146E-02
RMM:  10    -0.229256755333E+04   -0.40150E-04   -0.26833E-05  2850   0.406E-03    0.837E-03
RMM:  11    -0.229256757307E+04   -0.19737E-04   -0.10441E-05  2806   0.384E-03    0.554E-03
RMM:  12    -0.229256758658E+04   -0.13512E-04   -0.85413E-06  2795   0.285E-03    0.333E-03
RMM:  13    -0.229256759459E+04   -0.80099E-05   -0.59696E-06  2782   0.294E-03
  22 F= -.23127815E+04 E0= -.23127815E+04  d E =-.322481E-01  mag=     4.0000
       N       E                     dE             d eps       ncg     rms          rms(c)
DAV:   1    -0.229256071346E+04    0.68731E-02   -0.68169E-01  4672   0.519E-01    0.301E-01
RMM:   2    -0.229257360532E+04   -0.12892E-01   -0.12601E-01  5876   0.115E-01    0.263E-01
RMM:   3    -0.229257470847E+04   -0.11031E-02   -0.13754E-02  4935   0.518E-02    0.219E-01
RMM:   4    -0.229257450891E+04    0.19956E-03   -0.13944E-03  3227   0.124E-02    0.799E-02
RMM:   5    -0.229257445829E+04    0.50624E-04   -0.18539E-04  2963   0.751E-03    0.460E-02
RMM:   6    -0.229257445316E+04    0.51215E-05   -0.86399E-05  3194   0.681E-03
  23 F= -.23127885E+04 E0= -.23127885E+04  d E =-.702666E-02  mag=     4.0000
       N       E                     dE             d eps       ncg     rms          rms(c)
DAV:   1    -0.229246274472E+04    0.11171E+00   -0.59118E+00  4376   0.153E+00    0.902E-01
RMM:   2    -0.229258017886E+04   -0.11743E+00   -0.11321E+00  5860   0.350E-01    0.952E-01
RMM:   3    -0.229258483453E+04   -0.46557E-02   -0.12226E-01  5547   0.143E-01    0.579E-01
RMM:   4    -0.229258387330E+04    0.96124E-03   -0.12336E-02  5063   0.353E-02    0.226E-01
RMM:   5    -0.229258337430E+04    0.49900E-03   -0.15051E-03  4697   0.204E-02    0.128E-01
RMM:   6    -0.229258330543E+04    0.68865E-04   -0.64443E-04  4445   0.148E-02    0.106E-01
RMM:   7    -0.229258325704E+04    0.48394E-04   -0.27694E-04  3604   0.116E-02    0.417E-02
RMM:   8    -0.229258326001E+04   -0.29713E-05   -0.32308E-05  2827   0.490E-03
  24 F= -.23127976E+04 E0= -.23127976E+04  d E =-.161047E-01  mag=     4.0000
       N       E                     dE             d eps       ncg     rms          rms(c)
DAV:   1    -0.229256646539E+04    0.16792E-01   -0.14194E+00  4480   0.915E-01    0.437E-01
RMM:   2    -0.229259068125E+04   -0.24216E-01   -0.24208E-01  5727   0.184E-01    0.305E-01
RMM:   3    -0.229259275386E+04   -0.20726E-02   -0.23472E-02  5168   0.832E-02    0.286E-01
RMM:   4    -0.229259239182E+04    0.36204E-03   -0.26065E-03  4446   0.185E-02    0.125E-01
RMM:   5    -0.229259226800E+04    0.12382E-03   -0.39191E-04  3829   0.113E-02    0.674E-02
RMM:   6    -0.229259225224E+04    0.15767E-04   -0.20385E-04  3996   0.913E-03    0.578E-02
RMM:   7    -0.229259223066E+04    0.21573E-04   -0.51815E-05  2829   0.722E-03    0.113E-02
RMM:   8    -0.229259223381E+04   -0.31496E-05   -0.10698E-05  2830   0.287E-03
  25 F= -.23128066E+04 E0= -.23128066E+04  d E =-.904072E-02  mag=     4.0000
       N       E                     dE             d eps       ncg     rms          rms(c)
DAV:   1    -0.229250113489E+04    0.91096E-01   -0.54082E+00  4376   0.180E+00    0.850E-01
RMM:   2    -0.229259442631E+04   -0.93291E-01   -0.92772E-01  5735   0.366E-01    0.641E-01
RMM:   3    -0.229260188774E+04   -0.74614E-02   -0.89986E-02  5379   0.152E-01    0.572E-01
RMM:   4    -0.229260028525E+04    0.16025E-02   -0.97180E-03  5275   0.359E-02    0.241E-01
RMM:   5    -0.229259979035E+04    0.49491E-03   -0.16258E-03  4584   0.208E-02    0.132E-01
RMM:   6    -0.229259965465E+04    0.13569E-03   -0.75901E-04  4618   0.157E-02    0.930E-02
RMM:   7    -0.229259959591E+04    0.58740E-04   -0.17977E-04  3817   0.113E-02    0.235E-02
RMM:   8    -0.229259960248E+04   -0.65698E-05   -0.29963E-05  2850   0.408E-03
  26 F= -.23128140E+04 E0= -.23128140E+04  d E =-.163959E-01  mag=     4.0000
       N       E                     dE             d eps       ncg     rms          rms(c)
DAV:   1    -0.229258995420E+04    0.96417E-02   -0.94324E-01  4528   0.750E-01    0.338E-01
RMM:   2    -0.229260590191E+04   -0.15948E-01   -0.16035E-01  5771   0.148E-01    0.222E-01
RMM:   3    -0.229260731331E+04   -0.14114E-02   -0.15846E-02  4981   0.662E-02    0.177E-01
RMM:   4    -0.229260723020E+04    0.83114E-04   -0.16097E-03  3627   0.138E-02    0.111E-01
RMM:   5    -0.229260712977E+04    0.10042E-03   -0.27373E-04  3154   0.899E-03    0.552E-02
RMM:   6    -0.229260712448E+04    0.52908E-05   -0.14706E-04  3553   0.772E-03    0.484E-02
RMM:   7    -0.229260710872E+04    0.15760E-04   -0.36732E-05  2830   0.575E-03    0.881E-03
RMM:   8    -0.229260711213E+04   -0.34110E-05   -0.88354E-06  2826   0.241E-03
  27 F= -.23128215E+04 E0= -.23128215E+04  d E =-.745707E-02  mag=     4.0000
       N       E                     dE             d eps       ncg     rms          rms(c)
DAV:   1    -0.229247030095E+04    0.13681E+00   -0.84972E+00  4376   0.226E+00    0.101E+00
RMM:   2    -0.229261722983E+04   -0.14693E+00   -0.14637E+00  5761   0.448E-01    0.761E-01
RMM:   3    -0.229262917596E+04   -0.11946E-01   -0.14841E-01  5393   0.190E-01    0.596E-01
RMM:   4    -0.229262772566E+04    0.14503E-02   -0.14650E-02  5426   0.418E-02    0.314E-01
RMM:   5    -0.229262686444E+04    0.86122E-03   -0.27336E-03  4736   0.234E-02    0.175E-01
RMM:   6    -0.229262665911E+04    0.20533E-03   -0.13542E-03  4675   0.180E-02    0.127E-01
RMM:   7    -0.229262654696E+04    0.11215E-03   -0.30596E-04  3975   0.128E-02    0.316E-02
RMM:   8    -0.229262656036E+04   -0.13398E-04   -0.50481E-05  2882   0.458E-03    0.143E-02
RMM:   9    -0.229262658004E+04   -0.19682E-04   -0.19054E-05  2827   0.369E-03    0.734E-03
RMM:  10    -0.229262658892E+04   -0.88783E-05   -0.73564E-06  2819   0.288E-03
  28 F= -.23128408E+04 E0= -.23128408E+04  d E =-.267510E-01  mag=     4.0000
       N       E                     dE             d eps       ncg     rms          rms(c)
DAV:   1    -0.229199974278E+04    0.62684E+00   -0.34151E+01  4376   0.457E+00    0.205E+00
RMM:   2    -0.229262037598E+04   -0.62063E+00   -0.61348E+00  5931   0.928E-01    0.168E+00
RMM:   3    -0.229266698650E+04   -0.46611E-01   -0.66687E-01  5657   0.378E-01    0.130E+00
RMM:   4    -0.229265879940E+04    0.81871E-02   -0.59799E-02  5680   0.860E-02    0.629E-01
RMM:   5    -0.229265512409E+04    0.36753E-02   -0.13719E-02  5060   0.474E-02    0.373E-01
RMM:   6    -0.229265398968E+04    0.11344E-02   -0.55386E-03  4875   0.360E-02    0.214E-01
RMM:   7    -0.229265380221E+04    0.18747E-03   -0.12268E-03  4996   0.244E-02    0.720E-02
RMM:   8    -0.229265386100E+04   -0.58792E-04   -0.19636E-04  3623   0.823E-03    0.279E-02
RMM:   9    -0.229265394054E+04   -0.79538E-04   -0.73383E-05  3048   0.688E-03    0.126E-02
RMM:  10    -0.229265398106E+04   -0.40521E-04   -0.27415E-05  2880   0.463E-03    0.105E-02
RMM:  11    -0.229265401194E+04   -0.30871E-04   -0.15169E-05  2818   0.414E-03    0.569E-03
RMM:  12    -0.229265403227E+04   -0.20336E-04   -0.12619E-05  2812   0.358E-03    0.320E-03
RMM:  13    -0.229265403847E+04   -0.62000E-05   -0.55434E-06  2783   0.321E-03
  29 F= -.23128683E+04 E0= -.23128683E+04  d E =-.543301E-01  mag=     4.0000
       N       E                     dE             d eps       ncg     rms          rms(c)
DAV:   1    -0.228959546892E+04    0.30586E+01   -0.13727E+02  4368   0.929E+00    0.426E+00
RMM:   2    -0.229277420766E+04   -0.31787E+01   -0.28816E+01  6081   0.210E+00    0.730E+00
RMM:   3    -0.229262639239E+04    0.14782E+00   -0.30398E+00  5673   0.743E-01    0.340E+00
RMM:   4    -0.229259052214E+04    0.35870E-01   -0.24484E-01  5419   0.174E-01    0.148E+00
RMM:   5    -0.229259915146E+04   -0.86293E-02   -0.40276E-02  5234   0.877E-02    0.118E+00
RMM:   6    -0.229258887291E+04    0.10279E-01   -0.29988E-02  4908   0.827E-02    0.617E-01
RMM:   7    -0.229258819379E+04    0.67912E-03   -0.95053E-03  5061   0.609E-02    0.218E-01
RMM:   8    -0.229258851969E+04   -0.32590E-03   -0.15354E-03  4791   0.234E-02    0.972E-02
RMM:   9    -0.229258866101E+04   -0.14132E-03   -0.31666E-04  4430   0.159E-02    0.489E-02
RMM:  10    -0.229258877282E+04   -0.11181E-03   -0.13655E-04  3801   0.730E-03    0.275E-02
RMM:  11    -0.229258881015E+04   -0.37335E-04   -0.25830E-05  2869   0.558E-03    0.196E-02
RMM:  12    -0.229258885193E+04   -0.41780E-04   -0.28857E-05  2979   0.415E-03    0.109E-02
RMM:  13    -0.229258888450E+04   -0.32567E-04   -0.19519E-05  2851   0.430E-03    0.526E-03
RMM:  14    -0.229258889913E+04   -0.14628E-04   -0.10473E-05  2796   0.385E-03    0.302E-03
RMM:  15    -0.229258890822E+04   -0.90913E-05   -0.86148E-06  2797   0.320E-03
  30 F= -.23128039E+04 E0= -.23128039E+04  d E =0.100556E-01  mag=     4.0000
       N       E                     dE             d eps       ncg     rms          rms(c)
DAV:   1    -0.229030291246E+04    0.22860E+01   -0.10198E+02  4376   0.806E+00    0.370E+00
RMM:   2    -0.229249106590E+04   -0.21882E+01   -0.22213E+01  6045   0.188E+00    0.235E+00
RMM:   3    -0.229271550226E+04   -0.22444E+00   -0.24879E+00  5647   0.665E-01    0.228E+00
RMM:   4    -0.229268278419E+04    0.32718E-01   -0.15168E-01  5900   0.131E-01    0.144E+00
RMM:   5    -0.229266721288E+04    0.15571E-01   -0.35959E-02  5544   0.724E-02    0.837E-01
RMM:   6    -0.229265871433E+04    0.84986E-02   -0.34351E-02  4718   0.798E-02    0.338E-01
RMM:   7    -0.229265817189E+04    0.54244E-03   -0.54684E-03  4792   0.535E-02    0.166E-01
RMM:   8    -0.229265814613E+04    0.25762E-04   -0.89035E-04  4329   0.162E-02    0.844E-02
RMM:   9    -0.229265804636E+04    0.99762E-04   -0.26198E-04  3963   0.131E-02    0.431E-02
RMM:  10    -0.229265803859E+04    0.77694E-05   -0.11949E-04  3488   0.698E-03    0.210E-02
RMM:  11    -0.229265804295E+04   -0.43514E-05   -0.26713E-05  2842   0.520E-03
  31 F= -.23128725E+04 E0= -.23128725E+04  d E =-.584809E-01  mag=     4.0000
       N       E                     dE             d eps       ncg     rms          rms(c)
DAV:   1    -0.229256284374E+04    0.95195E-01   -0.51182E+00  4388   0.178E+00    0.795E-01
RMM:   2    -0.229265370624E+04   -0.90862E-01   -0.88934E-01  5766   0.357E-01    0.652E-01
RMM:   3    -0.229266167913E+04   -0.79729E-02   -0.10060E-01  5297   0.168E-01    0.526E-01
RMM:   4    -0.229266035852E+04    0.13206E-02   -0.90798E-03  5343   0.342E-02    0.255E-01
RMM:   5    -0.229265971336E+04    0.64516E-03   -0.21257E-03  4924   0.200E-02    0.137E-01
RMM:   6    -0.229265959787E+04    0.11549E-03   -0.82749E-04  4583   0.152E-02    0.759E-02
RMM:   7    -0.229265956174E+04    0.36126E-04   -0.15090E-04  3227   0.949E-03    0.247E-02
RMM:   8    -0.229265955900E+04    0.27418E-05   -0.27302E-05  2836   0.411E-03
  32 F= -.23128742E+04 E0= -.23128742E+04  d E =-.602115E-01  mag=     4.0000
       N       E                     dE             d eps       ncg     rms          rms(c)
DAV:   1    -0.229265961163E+04   -0.49883E-04   -0.86032E-02  4528   0.225E-01    0.102E-01
RMM:   2    -0.229266119818E+04   -0.15866E-02   -0.15518E-02  5989   0.469E-02    0.824E-02
RMM:   3    -0.229266134103E+04   -0.14285E-03   -0.17050E-03  3148   0.187E-02    0.683E-02
RMM:   4    -0.229266132021E+04    0.20823E-04   -0.15809E-04  2865   0.525E-03    0.344E-02
RMM:   5    -0.229266130848E+04    0.11736E-04   -0.33896E-05  2835   0.309E-03    0.170E-02
RMM:   6    -0.229266130767E+04    0.80356E-06   -0.13123E-05  2816   0.268E-03
  33 F= -.23128760E+04 E0= -.23128760E+04  d E =-.176994E-02  mag=     4.0000
       N       E                     dE             d eps       ncg     rms          rms(c)
DAV:   1    -0.229265102957E+04    0.10279E-01   -0.77175E-01  4400   0.673E-01    0.305E-01
RMM:   2    -0.229266517349E+04   -0.14144E-01   -0.13805E-01  5820   0.137E-01    0.253E-01
RMM:   3    -0.229266645192E+04   -0.12784E-02   -0.15464E-02  4791   0.641E-02    0.206E-01
RMM:   4    -0.229266625261E+04    0.19931E-03   -0.14076E-03  3497   0.132E-02    0.102E-01
RMM:   5    -0.229266614467E+04    0.10794E-03   -0.30140E-04  3438   0.799E-03    0.494E-02
RMM:   6    -0.229266613486E+04    0.98062E-05   -0.94588E-05  3164   0.661E-03
  34 F= -.23128809E+04 E0= -.23128809E+04  d E =-.665684E-02  mag=     4.0000
       N       E                     dE             d eps       ncg     rms          rms(c)
DAV:   1    -0.229261204001E+04    0.54105E-01   -0.30889E+00  4376   0.135E+00    0.613E-01
RMM:   2    -0.229266946673E+04   -0.57427E-01   -0.55952E-01  5747   0.274E-01    0.535E-01
RMM:   3    -0.229267468751E+04   -0.52208E-02   -0.67107E-02  5215   0.129E-01    0.422E-01
RMM:   4    -0.229267388254E+04    0.80497E-03   -0.59943E-03  4852   0.258E-02    0.205E-01
RMM:   5    -0.229267343510E+04    0.44744E-03   -0.13623E-03  4505   0.147E-02    0.108E-01
RMM:   6    -0.229267337719E+04    0.57913E-04   -0.45723E-04  4173   0.113E-02    0.564E-02
RMM:   7    -0.229267336724E+04    0.99443E-05   -0.81362E-05  2977   0.719E-03
  35 F= -.23128882E+04 E0= -.23128882E+04  d E =-.139862E-01  mag=     4.0000
       N       E                     dE             d eps       ncg     rms          rms(c)
DAV:   1    -0.229241724244E+04    0.25613E+00   -0.12370E+01  4376   0.271E+00    0.124E+00
RMM:   2    -0.229265707064E+04   -0.23983E+00   -0.23401E+00  5916   0.563E-01    0.112E+00
RMM:   3    -0.229267716475E+04   -0.20094E-01   -0.28197E-01  5385   0.273E-01    0.871E-01
RMM:   4    -0.229267364193E+04    0.35228E-02   -0.23923E-02  5431   0.525E-02    0.422E-01
RMM:   5    -0.229267182218E+04    0.18198E-02   -0.61255E-03  5233   0.297E-02    0.246E-01
RMM:   6    -0.229267145476E+04    0.36741E-03   -0.19944E-03  4886   0.204E-02    0.134E-01
RMM:   7    -0.229267140663E+04    0.48132E-04   -0.41119E-04  4130   0.131E-02    0.463E-02
RMM:   8    -0.229267143065E+04   -0.24018E-04   -0.76309E-05  2908   0.533E-03    0.190E-02
RMM:   9    -0.229267144913E+04   -0.18485E-04   -0.22549E-05  2848   0.405E-03    0.101E-02
RMM:  10    -0.229267145405E+04   -0.49120E-05   -0.72046E-06  2822   0.273E-03
  36 F= -.23128864E+04 E0= -.23128864E+04  d E =-.121570E-01  mag=     4.0000
       N       E                     dE             d eps       ncg     rms          rms(c)
DAV:   1    -0.229257781531E+04    0.93634E-01   -0.47062E+00  4376   0.166E+00    0.757E-01
RMM:   2    -0.229266881610E+04   -0.91001E-01   -0.89815E-01  5967   0.363E-01    0.581E-01
RMM:   3    -0.229267840666E+04   -0.95906E-02   -0.10988E-01  5437   0.141E-01    0.556E-01
RMM:   4    -0.229267681150E+04    0.15952E-02   -0.92142E-03  5144   0.318E-02    0.281E-01
RMM:   5    -0.229267602672E+04    0.78478E-03   -0.15736E-03  4641   0.171E-02    0.154E-01
RMM:   6    -0.229267581332E+04    0.21340E-03   -0.10688E-03  4666   0.155E-02    0.462E-02
RMM:   7    -0.229267581967E+04   -0.63569E-05   -0.11981E-04  3063   0.970E-03    0.303E-02
RMM:   8    -0.229267581392E+04    0.57498E-05   -0.27555E-05  2843   0.362E-03
  37 F= -.23128907E+04 E0= -.23128907E+04  d E =-.164834E-01  mag=     4.0000
       N       E                     dE             d eps       ncg     rms          rms(c)
DAV:   1    -0.229268472041E+04   -0.89007E-02   -0.46629E-02  4528   0.194E-01    0.862E-02
RMM:   2    -0.229268541716E+04   -0.69674E-03   -0.70013E-03  5812   0.414E-02    0.587E-02
RMM:   3    -0.229268547082E+04   -0.53662E-04   -0.70661E-04  3394   0.168E-02    0.603E-02
RMM:   4    -0.229268544424E+04    0.26575E-04   -0.78220E-05  2845   0.517E-03    0.264E-02
RMM:   5    -0.229268543435E+04    0.98933E-05   -0.25888E-05  2864   0.412E-03
  38 F= -.23129003E+04 E0= -.23129003E+04  d E =-.960765E-02  mag=     4.0000
       N       E                     dE             d eps       ncg     rms          rms(c)
DAV:   1    -0.229270517952E+04   -0.19735E-01   -0.42038E-01  4400   0.582E-01    0.261E-01
RMM:   2    -0.229271148678E+04   -0.63073E-02   -0.63555E-02  5758   0.122E-01    0.165E-01
RMM:   3    -0.229271198325E+04   -0.49646E-03   -0.65421E-03  5092   0.515E-02    0.163E-01
RMM:   4    -0.229271181938E+04    0.16387E-03   -0.72221E-04  4078   0.131E-02    0.859E-02
RMM:   5    -0.229271172923E+04    0.90151E-04   -0.25657E-04  4349   0.111E-02    0.372E-02
RMM:   6    -0.229271171489E+04    0.14339E-04   -0.57869E-05  3300   0.772E-03    0.174E-02
RMM:   7    -0.229271171083E+04    0.40552E-05   -0.16735E-05  2834   0.489E-03
  39 F= -.23129265E+04 E0= -.23129265E+04  d E =-.358424E-01  mag=     4.0000
       N       E                     dE             d eps       ncg     rms          rms(c)
DAV:   1    -0.229272599243E+04   -0.14278E-01   -0.16902E+00  4376   0.117E+00    0.522E-01
RMM:   2    -0.229275158218E+04   -0.25590E-01   -0.25711E-01  5693   0.245E-01    0.348E-01
RMM:   3    -0.229275354052E+04   -0.19583E-02   -0.26811E-02  5260   0.950E-02    0.340E-01
RMM:   4    -0.229275280464E+04    0.73589E-03   -0.29130E-03  5152   0.256E-02    0.167E-01
RMM:   5    -0.229275246721E+04    0.33743E-03   -0.10879E-03  5235   0.204E-02    0.806E-02
RMM:   6    -0.229275239971E+04    0.67496E-04   -0.24898E-04  4465   0.112E-02    0.391E-02
RMM:   7    -0.229275238032E+04    0.19388E-04   -0.54102E-05  3244   0.624E-03    0.151E-02
RMM:   8    -0.229275237350E+04    0.68196E-05   -0.17014E-05  2834   0.447E-03
  40 F= -.23129671E+04 E0= -.23129671E+04  d E =-.764060E-01  mag=     4.0000
       N       E                     dE             d eps       ncg     rms          rms(c)
DAV:   1    -0.229267482187E+04    0.77558E-01   -0.67844E+00  4376   0.234E+00    0.105E+00
RMM:   2    -0.229277918754E+04   -0.10437E+00   -0.10479E+00  5678   0.498E-01    0.716E-01
RMM:   3    -0.229278664471E+04   -0.74572E-02   -0.11006E-01  5255   0.187E-01    0.683E-01
RMM:   4    -0.229278367870E+04    0.29660E-02   -0.11559E-02  5453   0.508E-02    0.335E-01
RMM:   5    -0.229278239165E+04    0.12871E-02   -0.46242E-03  5280   0.401E-02    0.182E-01
RMM:   6    -0.229278206983E+04    0.32181E-03   -0.11501E-03  5037   0.221E-02    0.849E-02
RMM:   7    -0.229278199679E+04    0.73045E-04   -0.27465E-04  4426   0.130E-02    0.320E-02
RMM:   8    -0.229278197630E+04    0.20484E-04   -0.68123E-05  3475   0.649E-03    0.147E-02
RMM:   9    -0.229278196727E+04    0.90294E-05   -0.25948E-05  3018   0.559E-03
  41 F= -.23129964E+04 E0= -.23129964E+04  d E =-.105740E+00  mag=     4.0000
       N       E                     dE             d eps       ncg     rms          rms(c)
DAV:   1    -0.229278117823E+04    0.79807E-03   -0.70240E-02  5272   0.238E-01    0.107E-01
RMM:   2    -0.229278224151E+04   -0.10633E-02   -0.10666E-02  5832   0.535E-02    0.595E-02
RMM:   3    -0.229278231864E+04   -0.77132E-04   -0.10947E-03  3698   0.220E-02    0.514E-02
RMM:   4    -0.229278231254E+04    0.61092E-05   -0.11916E-04  2865   0.579E-03    0.425E-02
RMM:   5    -0.229278229571E+04    0.16821E-04   -0.39567E-05  2896   0.486E-03    0.146E-02
RMM:   6    -0.229278229570E+04    0.18219E-07   -0.11235E-05  2822   0.413E-03
  42 F= -.23129968E+04 E0= -.23129968E+04  d E =-.106098E+00  mag=     4.0000
       N       E                     dE             d eps       ncg     rms          rms(c)
DAV:   1    -0.229279184092E+04   -0.95452E-02   -0.11806E-01  4560   0.346E-01    0.126E-01
RMM:   2    -0.229279332838E+04   -0.14875E-02   -0.15939E-02  5768   0.712E-02    0.588E-02
RMM:   3    -0.229279341875E+04   -0.90372E-04   -0.14655E-03  4077   0.283E-02    0.356E-02
RMM:   4    -0.229279341027E+04    0.84799E-05   -0.15189E-04  3326   0.753E-03    0.251E-02
RMM:   5    -0.229279341581E+04   -0.55452E-05   -0.44163E-05  2862   0.615E-03
  43 F= -.23130079E+04 E0= -.23130079E+04  d E =-.110877E-01  mag=     4.0000
       N       E                     dE             d eps       ncg     rms          rms(c)
DAV:   1    -0.229280484392E+04   -0.11434E-01   -0.10616E+00  4388   0.104E+00    0.380E-01
RMM:   2    -0.229281826406E+04   -0.13420E-01   -0.14426E-01  5729   0.213E-01    0.179E-01
RMM:   3    -0.229281903418E+04   -0.77012E-03   -0.13065E-02  5074   0.769E-02    0.107E-01
RMM:   4    -0.229281893838E+04    0.95794E-04   -0.14654E-03  4894   0.216E-02    0.771E-02
RMM:   5    -0.229281895729E+04   -0.18907E-04   -0.37252E-04  4364   0.147E-02    0.978E-02
RMM:   6    -0.229281887763E+04    0.79663E-04   -0.97304E-05  3372   0.703E-03    0.206E-02
RMM:   7    -0.229281887187E+04    0.57544E-05   -0.18066E-05  2833   0.504E-03
  44 F= -.23130332E+04 E0= -.23130332E+04  d E =-.364387E-01  mag=     4.0000
       N       E                     dE             d eps       ncg     rms          rms(c)
DAV:   1    -0.229277687641E+04    0.42001E-01   -0.42603E+00  4376   0.208E+00    0.760E-01
RMM:   2    -0.229283095612E+04   -0.54080E-01   -0.58152E-01  5663   0.428E-01    0.366E-01
RMM:   3    -0.229283433746E+04   -0.33813E-02   -0.55173E-02  5109   0.155E-01    0.249E-01
RMM:   4    -0.229283440142E+04   -0.63954E-04   -0.57900E-03  5160   0.403E-02    0.303E-01
RMM:   5    -0.229283357318E+04    0.82824E-03   -0.20110E-03  5052   0.292E-02    0.115E-01
RMM:   6    -0.229283346579E+04    0.10739E-03   -0.48757E-04  4700   0.158E-02    0.362E-02
RMM:   7    -0.229283344059E+04    0.25192E-04   -0.94716E-05  3964   0.116E-02    0.187E-02
RMM:   8    -0.229283343083E+04    0.97684E-05   -0.31155E-05  3003   0.478E-03
  45 F= -.23130475E+04 E0= -.23130475E+04  d E =-.507508E-01  mag=     4.0000
       N       E                     dE             d eps       ncg     rms          rms(c)
DAV:   1    -0.229284255103E+04   -0.91104E-02   -0.47970E-01  4744   0.718E-01    0.215E-01
RMM:   2    -0.229284714675E+04   -0.45957E-02   -0.50767E-02  5665   0.130E-01    0.104E-01
RMM:   3    -0.229284749966E+04   -0.35291E-03   -0.52182E-03  4878   0.498E-02    0.664E-02
RMM:   4    -0.229284750472E+04   -0.50681E-05   -0.47492E-04  4052   0.120E-02    0.789E-02
RMM:   5    -0.229284745115E+04    0.53571E-04   -0.14822E-04  3571   0.903E-03    0.373E-02
RMM:   6    -0.229284744067E+04    0.10484E-04   -0.54724E-05  3434   0.665E-03    0.830E-03
RMM:   7    -0.229284743956E+04    0.11116E-05   -0.91209E-06  2809   0.505E-03
  46 F= -.23130615E+04 E0= -.23130615E+04  d E =-.139421E-01  mag=     4.0000
       N       E                     dE             d eps       ncg     rms          rms(c)
DAV:   1    -0.229282587943E+04    0.21561E-01   -0.43136E+00  4376   0.215E+00    0.643E-01
RMM:   2    -0.229286718603E+04   -0.41307E-01   -0.45708E-01  5531   0.387E-01    0.322E-01
RMM:   3    -0.229287047398E+04   -0.32880E-02   -0.49420E-02  4979   0.153E-01    0.224E-01
RMM:   4    -0.229287044635E+04    0.27631E-04   -0.42616E-03  5051   0.341E-02    0.246E-01
RMM:   5    -0.229286985001E+04    0.59634E-03   -0.14357E-03  4968   0.251E-02    0.105E-01
RMM:   6    -0.229286971056E+04    0.13945E-03   -0.53648E-04  4645   0.162E-02    0.316E-02
RMM:   7    -0.229286968470E+04    0.25859E-04   -0.73338E-05  3928   0.117E-02    0.165E-02
RMM:   8    -0.229286967332E+04    0.11378E-04   -0.27430E-05  2991   0.409E-03    0.118E-02
RMM:   9    -0.229286966632E+04    0.69998E-05   -0.13560E-05  2821   0.383E-03
  47 F= -.23130835E+04 E0= -.23130835E+04  d E =-.359489E-01  mag=     4.0000
       N       E                     dE             d eps       ncg     rms          rms(c)
DAV:   1    -0.229287967945E+04   -0.10006E-01   -0.44612E-01  4824   0.598E-01    0.226E-01
RMM:   2    -0.229288704547E+04   -0.73660E-02   -0.75565E-02  5715   0.134E-01    0.137E-01
RMM:   3    -0.229288746099E+04   -0.41552E-03   -0.60639E-03  4992   0.493E-02    0.103E-01
RMM:   4    -0.229288744466E+04    0.16328E-04   -0.66613E-04  3855   0.118E-02    0.826E-02
RMM:   5    -0.229288738034E+04    0.64321E-04   -0.19936E-04  3820   0.104E-02    0.481E-02
RMM:   6    -0.229288736110E+04    0.19238E-04   -0.64619E-05  3142   0.737E-03    0.224E-02
RMM:   7    -0.229288735731E+04    0.37895E-05   -0.14133E-05  2821   0.517E-03
  48 F= -.23131013E+04 E0= -.23131013E+04  d E =-.178330E-01  mag=     4.0000
       N       E                     dE             d eps       ncg     rms          rms(c)
DAV:   1    -0.229283213547E+04    0.55226E-01   -0.39883E+00  4376   0.180E+00    0.684E-01
RMM:   2    -0.229289948508E+04   -0.67350E-01   -0.69197E-01  5604   0.390E-01    0.423E-01
RMM:   3    -0.229290378493E+04   -0.42998E-02   -0.63727E-02  5163   0.147E-01    0.304E-01
RMM:   4    -0.229290368689E+04    0.98039E-04   -0.61334E-03  5120   0.347E-02    0.249E-01
RMM:   5    -0.229290327716E+04    0.40973E-03   -0.16386E-03  4908   0.261E-02    0.181E-01
RMM:   6    -0.229290296339E+04    0.31378E-03   -0.85142E-04  4919   0.186E-02    0.708E-02
RMM:   7    -0.229290292534E+04    0.38049E-04   -0.13176E-04  3819   0.119E-02    0.169E-02
RMM:   8    -0.229290292881E+04   -0.34744E-05   -0.24704E-05  2884   0.427E-03
  49 F= -.23131173E+04 E0= -.23131173E+04  d E =-.338130E-01  mag=     4.0000
       N       E                     dE             d eps       ncg     rms          rms(c)
DAV:   1    -0.229290140131E+04    0.15240E-02   -0.15891E-01  4624   0.354E-01    0.135E-01
RMM:   2    -0.229290402580E+04   -0.26245E-02   -0.26886E-02  5736   0.778E-02    0.787E-02
RMM:   3    -0.229290420014E+04   -0.17434E-03   -0.22673E-03  4157   0.307E-02    0.547E-02
RMM:   4    -0.229290420641E+04   -0.62690E-05   -0.25036E-04  3032   0.779E-03    0.562E-02
RMM:   5    -0.229290418412E+04    0.22289E-04   -0.76573E-05  2923   0.649E-03    0.277E-02
RMM:   6    -0.229290418076E+04    0.33652E-05   -0.22109E-05  2856   0.537E-03
  50 F= -.23131185E+04 E0= -.23131185E+04  d E =-.349853E-01  mag=     4.0000
       N       E                     dE             d eps       ncg     rms          rms(c)
DAV:   1    -0.229290644837E+04   -0.22643E-02   -0.48043E-01  4432   0.691E-01    0.256E-01
RMM:   2    -0.229291205365E+04   -0.56053E-02   -0.59606E-02  5627   0.136E-01    0.131E-01
RMM:   3    -0.229291240510E+04   -0.35145E-03   -0.55490E-03  4976   0.560E-02    0.114E-01
RMM:   4    -0.229291236179E+04    0.43310E-04   -0.59189E-04  4125   0.131E-02    0.829E-02
RMM:   5    -0.229291228709E+04    0.74699E-04   -0.21185E-04  4004   0.115E-02    0.422E-02
RMM:   6    -0.229291226911E+04    0.17982E-04   -0.65282E-05  3423   0.783E-03    0.205E-02
RMM:   7    -0.229291226512E+04    0.39920E-05   -0.14921E-05  2823   0.543E-03
  51 F= -.23131267E+04 E0= -.23131267E+04  d E =-.825233E-02  mag=     4.0000
       N       E                     dE             d eps       ncg     rms          rms(c)
DAV:   1    -0.229290253666E+04    0.97324E-02   -0.10502E+00  4376   0.102E+00    0.377E-01
RMM:   2    -0.229291476596E+04   -0.12229E-01   -0.13026E-01  5527   0.198E-01    0.189E-01
RMM:   3    -0.229291548222E+04   -0.71626E-03   -0.12098E-02  4985   0.787E-02    0.152E-01
RMM:   4    -0.229291544170E+04    0.40516E-04   -0.13374E-03  4796   0.192E-02    0.128E-01
RMM:   5    -0.229291528320E+04    0.15850E-03   -0.46024E-04  4499   0.158E-02    0.692E-02
RMM:   6    -0.229291523451E+04    0.48692E-04   -0.13736E-04  4278   0.962E-03    0.308E-02
RMM:   7    -0.229291522674E+04    0.77729E-05   -0.25622E-05  2912   0.638E-03
  52 F= -.23131299E+04 E0= -.23131299E+04  d E =-.114622E-01  mag=     4.0000
       N       E                     dE             d eps       ncg     rms          rms(c)
DAV:   1    -0.229291678749E+04   -0.15530E-02   -0.35899E-01  4496   0.591E-01    0.197E-01
RMM:   2    -0.229292076615E+04   -0.39787E-02   -0.43313E-02  5552   0.110E-01    0.101E-01
RMM:   3    -0.229292108688E+04   -0.32073E-03   -0.44470E-03  4798   0.428E-02    0.796E-02
RMM:   4    -0.229292108598E+04    0.90519E-06   -0.40909E-04  3469   0.994E-03    0.645E-02
RMM:   5    -0.229292105067E+04    0.35306E-04   -0.13318E-04  3408   0.852E-03    0.425E-02
RMM:   6    -0.229292103842E+04    0.12249E-04   -0.49381E-05  3076   0.674E-03    0.150E-02
RMM:   7    -0.229292103945E+04   -0.10302E-05   -0.84250E-06  2805   0.459E-03
  53 F= -.23131359E+04 E0= -.23131359E+04  d E =-.595194E-02  mag=     4.0000
       N       E                     dE             d eps       ncg     rms          rms(c)
DAV:   1    -0.229289613549E+04    0.24903E-01   -0.26342E+00  4376   0.160E+00    0.530E-01
RMM:   2    -0.229292532953E+04   -0.29194E-01   -0.31857E-01  5514   0.298E-01    0.266E-01
RMM:   3    -0.229292761327E+04   -0.22837E-02   -0.33001E-02  4961   0.122E-01    0.179E-01
RMM:   4    -0.229292763753E+04   -0.24252E-04   -0.31437E-03  4929   0.281E-02    0.173E-01
RMM:   5    -0.229292747699E+04    0.16054E-03   -0.95244E-04  4678   0.203E-02    0.140E-01
RMM:   6    -0.229292730652E+04    0.17047E-03   -0.33415E-04  4595   0.125E-02    0.338E-02
RMM:   7    -0.229292731066E+04   -0.41415E-05   -0.38102E-05  2906   0.770E-03
  54 F= -.23131425E+04 E0= -.23131425E+04  d E =-.125971E-01  mag=     4.0000
       N       E                     dE             d eps       ncg     rms          rms(c)
DAV:   1    -0.229293180504E+04   -0.44985E-02   -0.45211E-01  4512   0.639E-01    0.208E-01
RMM:   2    -0.229293686028E+04   -0.50552E-02   -0.55217E-02  5577   0.123E-01    0.116E-01
RMM:   3    -0.229293729179E+04   -0.43151E-03   -0.58201E-03  4850   0.459E-02    0.788E-02
RMM:   4    -0.229293732123E+04   -0.29434E-04   -0.52167E-04  3653   0.115E-02    0.972E-02
RMM:   5    -0.229293724722E+04    0.74012E-04   -0.18492E-04  3508   0.910E-03    0.384E-02
RMM:   6    -0.229293724150E+04    0.57214E-05   -0.49151E-05  3031   0.657E-03
  55 F= -.23131525E+04 E0= -.23131525E+04  d E =-.995545E-02  mag=     4.0000
       N       E                     dE             d eps       ncg     rms          rms(c)
DAV:   1    -0.229290311040E+04    0.34137E-01   -0.40593E+00  4376   0.192E+00    0.620E-01
RMM:   2    -0.229294854459E+04   -0.45434E-01   -0.49607E-01  5618   0.367E-01    0.353E-01
RMM:   3    -0.229295264339E+04   -0.40988E-02   -0.53684E-02  5087   0.144E-01    0.275E-01
RMM:   4    -0.229295279330E+04   -0.14990E-03   -0.47526E-03  5104   0.329E-02    0.306E-01
RMM:   5    -0.229295197406E+04    0.81923E-03   -0.16570E-03  5125   0.252E-02    0.949E-02
RMM:   6    -0.229295191610E+04    0.57965E-04   -0.44354E-04  4529   0.153E-02    0.292E-02
RMM:   7    -0.229295191711E+04   -0.10117E-05   -0.59190E-05  3463   0.757E-03
  56 F= -.23131672E+04 E0= -.23131672E+04  d E =-.247034E-01  mag=     4.0000
       N       E                     dE             d eps       ncg     rms          rms(c)
DAV:   1    -0.229295798740E+04   -0.60713E-02   -0.78080E-01  4528   0.840E-01    0.288E-01
RMM:   2    -0.229296448098E+04   -0.64936E-02   -0.68369E-02  5537   0.158E-01    0.180E-01
RMM:   3    -0.229296504320E+04   -0.56222E-03   -0.70776E-03  5043   0.599E-02    0.229E-01
RMM:   4    -0.229296463959E+04    0.40362E-03   -0.83874E-04  4407   0.157E-02    0.961E-02
RMM:   5    -0.229296452634E+04    0.11324E-03   -0.36022E-04  4522   0.130E-02    0.309E-02
RMM:   6    -0.229296452403E+04    0.23133E-05   -0.53042E-05  3172   0.811E-03
  57 F= -.23131799E+04 E0= -.23131799E+04  d E =-.126307E-01  mag=     4.0000
       N       E                     dE             d eps       ncg     rms          rms(c)
DAV:   1    -0.229293824658E+04    0.26280E-01   -0.45881E+00  4376   0.204E+00    0.696E-01
RMM:   2    -0.229297599069E+04   -0.37744E-01   -0.40142E-01  5523   0.380E-01    0.385E-01
RMM:   3    -0.229297879931E+04   -0.28086E-02   -0.42624E-02  5022   0.143E-01    0.476E-01
RMM:   4    -0.229297725570E+04    0.15436E-02   -0.48545E-03  5319   0.362E-02    0.257E-01
RMM:   5    -0.229297646142E+04    0.79429E-03   -0.18950E-03  5055   0.286E-02    0.796E-02
RMM:   6    -0.229297639419E+04    0.67224E-04   -0.35778E-04  4699   0.162E-02    0.326E-02
RMM:   7    -0.229297637071E+04    0.23481E-04   -0.67081E-05  3624   0.665E-03    0.155E-02
RMM:   8    -0.229297636072E+04    0.99965E-05   -0.18606E-05  2878   0.521E-03
  58 F= -.23131918E+04 E0= -.23131918E+04  d E =-.245363E-01  mag=     4.0000
       N       E                     dE             d eps       ncg     rms          rms(c)
DAV:   1    -0.229297995705E+04   -0.35863E-02   -0.18317E-01  4984   0.362E-01    0.114E-01
RMM:   2    -0.229298189560E+04   -0.19385E-02   -0.19639E-02  6012   0.706E-02    0.896E-02
RMM:   3    -0.229298205750E+04   -0.16190E-03   -0.19797E-03  3773   0.244E-02    0.919E-02
RMM:   4    -0.229298200896E+04    0.48538E-04   -0.21636E-04  2891   0.706E-03    0.500E-02
RMM:   5    -0.229298197941E+04    0.29549E-04   -0.71396E-05  2956   0.524E-03    0.186E-02
RMM:   6    -0.229298197875E+04    0.65714E-06   -0.18134E-05  2851   0.412E-03
  59 F= -.23131975E+04 E0= -.23131975E+04  d E =-.570144E-02  mag=     4.0000
       N       E                     dE             d eps       ncg     rms          rms(c)
DAV:   1    -0.229297910050E+04    0.28789E-02   -0.16460E+00  4376   0.108E+00    0.342E-01
RMM:   2    -0.229299609876E+04   -0.16998E-01   -0.17360E-01  5706   0.205E-01    0.237E-01
RMM:   3    -0.229299768522E+04   -0.15865E-02   -0.17960E-02  5157   0.753E-02    0.262E-01
RMM:   4    -0.229299732131E+04    0.36392E-03   -0.19140E-03  4271   0.179E-02    0.156E-01
RMM:   5    -0.229299706469E+04    0.25662E-03   -0.56795E-04  4404   0.127E-02    0.534E-02
RMM:   6    -0.229299705558E+04    0.91029E-05   -0.13076E-04  3364   0.911E-03    0.158E-02
RMM:   7    -0.229299705957E+04   -0.39889E-05   -0.19676E-05  2831   0.492E-03
  60 F= -.23132128E+04 E0= -.23132128E+04  d E =-.210429E-01  mag=     4.0000
       N       E                     dE             d eps       ncg     rms          rms(c)
DAV:   1    -0.229294627623E+04    0.50779E-01   -0.65765E+00  4384   0.216E+00    0.683E-01
RMM:   2    -0.229301326788E+04   -0.66992E-01   -0.69053E-01  5770   0.411E-01    0.426E-01
RMM:   3    -0.229301964727E+04   -0.63794E-02   -0.76389E-02  5236   0.152E-01    0.403E-01
RMM:   4    -0.229301938797E+04    0.25930E-03   -0.77867E-03  5388   0.346E-02    0.360E-01
RMM:   5    -0.229301826168E+04    0.11263E-02   -0.17612E-03  4941   0.211E-02    0.125E-01
RMM:   6    -0.229301815328E+04    0.10840E-03   -0.74617E-04  4562   0.160E-02    0.383E-02
RMM:   7    -0.229301815689E+04   -0.36110E-05   -0.97749E-05  3029   0.875E-03
  61 F= -.23132345E+04 E0= -.23132345E+04  d E =-.427103E-01  mag=     4.0000
       N       E                     dE             d eps       ncg     rms          rms(c)
DAV:   1    -0.229272731059E+04    0.29084E+00   -0.26086E+01  4376   0.433E+00    0.137E+00
RMM:   2    -0.229299753908E+04   -0.27023E+00   -0.28049E+00  5804   0.828E-01    0.850E-01
RMM:   3    -0.229302098326E+04   -0.23444E-01   -0.31094E-01  5286   0.297E-01    0.555E-01
RMM:   4    -0.229302030858E+04    0.67469E-03   -0.27706E-02  4982   0.663E-02    0.367E-01
RMM:   5    -0.229302093132E+04   -0.62275E-03   -0.77856E-03  4995   0.457E-02    0.529E-01
RMM:   6    -0.229301876632E+04    0.21650E-02   -0.27417E-03  5217   0.263E-02    0.127E-01
RMM:   7    -0.229301873386E+04    0.32460E-04   -0.40010E-04  3836   0.120E-02    0.477E-02
RMM:   8    -0.229301874505E+04   -0.11192E-04   -0.78935E-05  2907   0.637E-03    0.207E-02
RMM:   9    -0.229301875825E+04   -0.13195E-04   -0.28106E-05  2840   0.451E-03    0.960E-03
RMM:  10    -0.229301876688E+04   -0.86279E-05   -0.95418E-06  2828   0.365E-03
  62 F= -.23132364E+04 E0= -.23132364E+04  d E =-.445962E-01  mag=     4.0000
       N       E                     dE             d eps       ncg     rms          rms(c)
DAV:   1    -0.229296342781E+04    0.55330E-01   -0.57638E+00  4376   0.202E+00    0.629E-01
RMM:   2    -0.229302268315E+04   -0.59255E-01   -0.60426E-01  5731   0.389E-01    0.544E-01
RMM:   3    -0.229302738878E+04   -0.47056E-02   -0.67992E-02  5353   0.144E-01    0.483E-01
RMM:   4    -0.229302633315E+04    0.10556E-02   -0.62890E-03  5230   0.334E-02    0.245E-01
RMM:   5    -0.229302579314E+04    0.54001E-03   -0.18079E-03  5028   0.220E-02    0.134E-01
RMM:   6    -0.229302566968E+04    0.12347E-03   -0.72166E-04  4641   0.152E-02    0.597E-02
RMM:   7    -0.229302565702E+04    0.12653E-04   -0.10528E-04  3118   0.952E-03    0.248E-02
RMM:   8    -0.229302565409E+04    0.29337E-05   -0.20445E-05  2834   0.374E-03
  63 F= -.23132427E+04 E0= -.23132427E+04  d E =-.508731E-01  mag=     4.0000
       N       E                     dE             d eps       ncg     rms          rms(c)
DAV:   1    -0.229302256424E+04    0.30928E-02   -0.26270E+00  4404   0.140E+00    0.508E-01
RMM:   2    -0.229305233693E+04   -0.29773E-01   -0.31402E-01  5667   0.278E-01    0.298E-01
RMM:   3    -0.229305552063E+04   -0.31837E-02   -0.34431E-02  5158   0.102E-01    0.374E-01
RMM:   4    -0.229305471045E+04    0.81018E-03   -0.33341E-03  4985   0.253E-02    0.184E-01
RMM:   5    -0.229305438022E+04    0.33023E-03   -0.84602E-04  4850   0.171E-02    0.728E-02
RMM:   6    -0.229305432961E+04    0.50610E-04   -0.27021E-04  4415   0.124E-02    0.223E-02
RMM:   7    -0.229305432585E+04    0.37540E-05   -0.31865E-05  3024   0.588E-03
  64 F= -.23132721E+04 E0= -.23132721E+04  d E =-.294411E-01  mag=     4.0000
       N       E                     dE             d eps       ncg     rms          rms(c)
DAV:   1    -0.229278735248E+04    0.26698E+00   -0.23408E+01  4376   0.417E+00    0.154E+00
RMM:   2    -0.229306124893E+04   -0.27390E+00   -0.29158E+00  5727   0.829E-01    0.806E-01
RMM:   3    -0.229308533825E+04   -0.24089E-01   -0.31632E-01  5098   0.309E-01    0.694E-01
RMM:   4    -0.229308614554E+04   -0.80730E-03   -0.33506E-02  5337   0.741E-02    0.703E-01
RMM:   5    -0.229308209994E+04    0.40456E-02   -0.69050E-03  5031   0.461E-02    0.274E-01
RMM:   6    -0.229308125149E+04    0.84846E-03   -0.34957E-03  4892   0.366E-02    0.888E-02
RMM:   7    -0.229308123220E+04    0.19287E-04   -0.45807E-04  4881   0.220E-02    0.564E-02
RMM:   8    -0.229308123812E+04   -0.59250E-05   -0.14146E-04  3827   0.711E-03    0.239E-02
RMM:   9    -0.229308125084E+04   -0.12714E-04   -0.47742E-05  3164   0.665E-03    0.120E-02
RMM:  10    -0.229308126288E+04   -0.12045E-04   -0.30139E-05  3098   0.518E-03    0.801E-03
RMM:  11    -0.229308127662E+04   -0.13742E-04   -0.19889E-05  2915   0.507E-03    0.522E-03
RMM:  12    -0.229308128613E+04   -0.95104E-05   -0.14770E-05  2812   0.446E-03
  65 F= -.23133014E+04 E0= -.23133014E+04  d E =-.587335E-01  mag=     4.0000
       N       E                     dE             d eps       ncg     rms          rms(c)
DAV:   1    -0.229306685960E+04    0.14417E-01   -0.23163E+00  4624   0.113E+00    0.447E-01
RMM:   2    -0.229310031426E+04   -0.33455E-01   -0.34707E-01  6022   0.237E-01    0.390E-01
RMM:   3    -0.229310383047E+04   -0.35162E-02   -0.37975E-02  5516   0.866E-02    0.408E-01
RMM:   4    -0.229310291119E+04    0.91927E-03   -0.34811E-03  4498   0.214E-02    0.144E-01
RMM:   5    -0.229310274279E+04    0.16841E-03   -0.59042E-04  4041   0.117E-02    0.755E-02
RMM:   6    -0.229310272583E+04    0.16956E-04   -0.23662E-04  3957   0.103E-02    0.248E-02
RMM:   7    -0.229310273394E+04   -0.81138E-05   -0.28955E-05  2835   0.594E-03
  66 F= -.23133235E+04 E0= -.23133235E+04  d E =-.221220E-01  mag=     4.0000
       N       E                     dE             d eps       ncg     rms          rms(c)
DAV:   1    -0.229279824392E+04    0.30448E+00   -0.20682E+01  4392   0.337E+00    0.134E+00
RMM:   2    -0.229310208734E+04   -0.30384E+00   -0.31834E+00  5980   0.701E-01    0.104E+00
RMM:   3    -0.229313933537E+04   -0.37248E-01   -0.37131E-01  5575   0.264E-01    0.129E+00
RMM:   4    -0.229312970587E+04    0.96295E-02   -0.32302E-02  5728   0.624E-02    0.439E-01
RMM:   5    -0.229312831967E+04    0.13862E-02   -0.57410E-03  4817   0.309E-02    0.280E-01
RMM:   6    -0.229312792367E+04    0.39600E-03   -0.37005E-03  4856   0.291E-02    0.131E-01
RMM:   7    -0.229312791966E+04    0.40116E-05   -0.51776E-04  4548   0.177E-02    0.407E-02
RMM:   8    -0.229312797416E+04   -0.54499E-04   -0.96757E-05  3035   0.548E-03    0.210E-02
RMM:   9    -0.229312800586E+04   -0.31703E-04   -0.26956E-05  2843   0.412E-03    0.107E-02
RMM:  10    -0.229312802605E+04   -0.20185E-04   -0.13648E-05  2829   0.340E-03    0.605E-03
RMM:  11    -0.229312803599E+04   -0.99468E-05   -0.55139E-06  2795   0.281E-03
  67 F= -.23133507E+04 E0= -.23133507E+04  d E =-.493245E-01  mag=     4.0000
       N       E                     dE             d eps       ncg     rms          rms(c)
DAV:   1    -0.229314968391E+04   -0.21658E-01   -0.80479E-01  4560   0.988E-01    0.406E-01
RMM:   2    -0.229315379947E+04   -0.41156E-02   -0.51274E-02  5021   0.175E-01    0.185E-01
RMM:   3    -0.229315388630E+04   -0.86832E-04   -0.49644E-03  4707   0.727E-02    0.264E-01
RMM:   4    -0.229315338480E+04    0.50150E-03   -0.91634E-04  4768   0.211E-02    0.110E-01
RMM:   5    -0.229315319786E+04    0.18694E-03   -0.49920E-04  5212   0.202E-02    0.291E-02
RMM:   6    -0.229315317777E+04    0.20088E-04   -0.57213E-05  3960   0.734E-03    0.138E-02
RMM:   7    -0.229315316530E+04    0.12476E-04   -0.18772E-05  2961   0.381E-03    0.765E-03
RMM:   8    -0.229315315883E+04    0.64709E-05   -0.76570E-06  2809   0.340E-03
  68 F= -.23133756E+04 E0= -.23133756E+04  d E =-.248604E-01  mag=     4.0000
       N       E                     dE             d eps       ncg     rms          rms(c)
DAV:   1    -0.229315835306E+04   -0.51878E-02   -0.88057E-01  4512   0.103E+00    0.423E-01
RMM:   2    -0.229316286242E+04   -0.45094E-02   -0.56315E-02  4964   0.183E-01    0.195E-01
RMM:   3    -0.229316295985E+04   -0.97431E-04   -0.54543E-03  4729   0.738E-02    0.282E-01
RMM:   4    -0.229316237754E+04    0.58231E-03   -0.10119E-03  4696   0.221E-02    0.113E-01
RMM:   5    -0.229316216809E+04    0.20945E-03   -0.55899E-04  5225   0.213E-02    0.300E-02
RMM:   6    -0.229316214327E+04    0.24820E-04   -0.64780E-05  4251   0.787E-03    0.146E-02
RMM:   7    -0.229316212786E+04    0.15411E-04   -0.20780E-05  2987   0.389E-03    0.794E-03
RMM:   8    -0.229316211963E+04    0.82254E-05   -0.86422E-06  2809   0.350E-03
  69 F= -.23133843E+04 E0= -.23133843E+04  d E =-.335397E-01  mag=     4.0000
       N       E                     dE             d eps       ncg     rms          rms(c)
DAV:   1    -0.229316720474E+04   -0.50769E-02   -0.26477E-01  4672   0.545E-01    0.167E-01
RMM:   2    -0.229316939524E+04   -0.21905E-02   -0.23668E-02  5317   0.948E-02    0.890E-02
RMM:   3    -0.229316955068E+04   -0.15544E-03   -0.25744E-03  4541   0.462E-02    0.982E-02
RMM:   4    -0.229316950116E+04    0.49522E-04   -0.24116E-04  3492   0.943E-03    0.573E-02
RMM:   5    -0.229316946109E+04    0.40066E-04   -0.10291E-04  3875   0.870E-03    0.209E-02
RMM:   6    -0.229316945858E+04    0.25142E-05   -0.29429E-05  2914   0.628E-03
  70 F= -.23133915E+04 E0= -.23133915E+04  d E =-.720651E-02  mag=     4.0000
       N       E                     dE             d eps       ncg     rms          rms(c)
DAV:   1    -0.229316459071E+04    0.48704E-02   -0.12785E+00  4376   0.120E+00    0.366E-01
RMM:   2    -0.229317526819E+04   -0.10677E-01   -0.11597E-01  5117   0.209E-01    0.194E-01
RMM:   3    -0.229317594026E+04   -0.67207E-03   -0.12017E-02  4631   0.100E-01    0.213E-01
RMM:   4    -0.229317569847E+04    0.24179E-03   -0.11861E-03  4717   0.202E-02    0.127E-01
RMM:   5    -0.229317548154E+04    0.21693E-03   -0.55116E-04  5197   0.181E-02    0.419E-02
RMM:   6    -0.229317545561E+04    0.25927E-04   -0.11528E-04  4475   0.903E-03    0.148E-02
RMM:   7    -0.229317544559E+04    0.10026E-04   -0.19341E-05  2938   0.473E-03    0.793E-03
RMM:   8    -0.229317544095E+04    0.46346E-05   -0.88834E-06  2814   0.363E-03
  71 F= -.23133971E+04 E0= -.23133971E+04  d E =-.128952E-01  mag=     4.0000
       N       E                     dE             d eps       ncg     rms          rms(c)
DAV:   1    -0.229317902376E+04   -0.35782E-02   -0.53819E-01  4400   0.796E-01    0.178E-01
RMM:   2    -0.229318058377E+04   -0.15600E-02   -0.17340E-02  4666   0.119E-01    0.850E-02
RMM:   3    -0.229318050079E+04    0.82984E-04   -0.12373E-03  4479   0.568E-02    0.944E-02
RMM:   4    -0.229318045245E+04    0.48337E-04   -0.19232E-04  4352   0.111E-02    0.617E-02
RMM:   5    -0.229318039598E+04    0.56466E-04   -0.13778E-04  4196   0.113E-02    0.155E-02
RMM:   6    -0.229318039528E+04    0.70370E-06   -0.20298E-05  2835   0.661E-03
  72 F= -.23134023E+04 E0= -.23134023E+04  d E =-.510806E-02  mag=     4.0000
       N       E                     dE             d eps       ncg     rms          rms(c)
DAV:   1    -0.229317922182E+04    0.11742E-02   -0.14333E+00  4376   0.130E+00    0.291E-01
RMM:   2    -0.229318346425E+04   -0.42424E-02   -0.47126E-02  4602   0.194E-01    0.140E-01
RMM:   3    -0.229318317447E+04    0.28978E-03   -0.30383E-03  4530   0.786E-02    0.155E-01
RMM:   4    -0.229318303762E+04    0.13685E-03   -0.51266E-04  4723   0.177E-02    0.100E-01
RMM:   5    -0.229318288234E+04    0.15528E-03   -0.39123E-04  4922   0.176E-02    0.251E-02
RMM:   6    -0.229318287639E+04    0.59587E-05   -0.48294E-05  3582   0.851E-03
  73 F= -.23134050E+04 E0= -.23134050E+04  d E =-.783659E-02  mag=     4.0000
       N       E                     dE             d eps       ncg     rms          rms(c)
DAV:   1    -0.229318406496E+04   -0.11826E-02   -0.91931E-01  4420   0.105E+00    0.235E-01
RMM:   2    -0.229318807591E+04   -0.40110E-02   -0.43370E-02  4767   0.163E-01    0.110E-01
RMM:   3    -0.229318801628E+04    0.59636E-04   -0.32671E-03  4575   0.706E-02    0.806E-02
RMM:   4    -0.229318799808E+04    0.18198E-04   -0.41307E-04  4517   0.150E-02    0.927E-02
RMM:   5    -0.229318792462E+04    0.73455E-04   -0.23368E-04  4364   0.131E-02    0.426E-02
RMM:   6    -0.229318791073E+04    0.13891E-04   -0.41899E-05  3200   0.658E-03    0.104E-02
RMM:   7    -0.229318791105E+04   -0.31691E-06   -0.92459E-06  2812   0.488E-03
  74 F= -.23134105E+04 E0= -.23134105E+04  d E =-.548016E-02  mag=     4.0000
       N       E                     dE             d eps       ncg     rms          rms(c)
DAV:   1    -0.229318224633E+04    0.56644E-02   -0.18886E+00  4376   0.150E+00    0.337E-01
RMM:   2    -0.229319049915E+04   -0.82528E-02   -0.89301E-02  4710   0.233E-01    0.157E-01
RMM:   3    -0.229319037229E+04    0.12686E-03   -0.67912E-03  4567   0.107E-01    0.115E-01
RMM:   4    -0.229319034224E+04    0.30052E-04   -0.87128E-04  4659   0.219E-02    0.136E-01
RMM:   5    -0.229319018004E+04    0.16220E-03   -0.49151E-04  4998   0.187E-02    0.586E-02
RMM:   6    -0.229319015368E+04    0.26354E-04   -0.82215E-05  4061   0.806E-03    0.137E-02
RMM:   7    -0.229319015216E+04    0.15272E-05   -0.13170E-05  2825   0.542E-03
  75 F= -.23134133E+04 E0= -.23134133E+04  d E =-.835553E-02  mag=     4.0000
       N       E                     dE             d eps       ncg     rms          rms(c)
DAV:   1    -0.229318757833E+04    0.25754E-02   -0.10745E+00  4376   0.112E+00    0.266E-01
RMM:   2    -0.229319481800E+04   -0.72397E-02   -0.75915E-02  4883   0.181E-01    0.154E-01
RMM:   3    -0.229319509363E+04   -0.27563E-03   -0.65144E-03  4607   0.834E-02    0.151E-01
RMM:   4    -0.229319494651E+04    0.14711E-03   -0.69287E-04  4733   0.161E-02    0.917E-02
RMM:   5    -0.229319484567E+04    0.10085E-03   -0.25072E-04  4404   0.129E-02    0.325E-02
RMM:   6    -0.229319483614E+04    0.95303E-05   -0.74134E-05  3843   0.830E-03
  76 F= -.23134186E+04 E0= -.23134186E+04  d E =-.521899E-02  mag=     4.0000
       N       E                     dE             d eps       ncg     rms          rms(c)
DAV:   1    -0.229316266836E+04    0.32177E-01   -0.45229E+00  4376   0.229E+00    0.546E-01
RMM:   2    -0.229319285132E+04   -0.30183E-01   -0.31684E-01  4934   0.370E-01    0.313E-01
RMM:   3    -0.229319421363E+04   -0.13623E-02   -0.29389E-02  4611   0.180E-01    0.299E-01
RMM:   4    -0.229319367621E+04    0.53741E-03   -0.29662E-03  5338   0.328E-02    0.193E-01
RMM:   5    -0.229319324592E+04    0.43030E-03   -0.10479E-03  5041   0.245E-02    0.695E-02
RMM:   6    -0.229319319173E+04    0.54183E-04   -0.32592E-04  4648   0.148E-02    0.238E-02
RMM:   7    -0.229319318084E+04    0.10890E-04   -0.35664E-05  3155   0.683E-03    0.116E-02
RMM:   8    -0.229319317538E+04    0.54605E-05   -0.12530E-05  2820   0.393E-03
  77 F= -.23134180E+04 E0= -.23134180E+04  d E =-.465262E-02  mag=     4.0000
       N       E                     dE             d eps       ncg     rms          rms(c)
DAV:   1    -0.229318764904E+04    0.55318E-02   -0.12274E+00  4400   0.119E+00    0.283E-01
RMM:   2    -0.229319580080E+04   -0.81518E-02   -0.85787E-02  4941   0.193E-01    0.149E-01
RMM:   3    -0.229319613529E+04   -0.33449E-03   -0.77944E-03  4620   0.874E-02    0.133E-01
RMM:   4    -0.229319605483E+04    0.80458E-04   -0.79214E-04  4858   0.168E-02    0.104E-01
RMM:   5    -0.229319594725E+04    0.10758E-03   -0.28535E-04  4309   0.133E-02    0.423E-02
RMM:   6    -0.229319593173E+04    0.15521E-04   -0.10391E-04  4004   0.874E-03    0.153E-02
RMM:   7    -0.229319592973E+04    0.20003E-05   -0.17169E-05  2815   0.651E-03
  78 F= -.23134202E+04 E0= -.23134202E+04  d E =-.683753E-02  mag=     4.0000
       N       E                     dE             d eps       ncg     rms          rms(c)
DAV:   1    -0.229319457836E+04    0.13534E-02   -0.59235E-01  4432   0.831E-01    0.227E-01
RMM:   2    -0.229319846866E+04   -0.38903E-02   -0.40894E-02  5070   0.137E-01    0.127E-01
RMM:   3    -0.229319862302E+04   -0.15435E-03   -0.34989E-03  4648   0.621E-02    0.149E-01
RMM:   4    -0.229319845906E+04    0.16395E-03   -0.43709E-04  4460   0.132E-02    0.669E-02
RMM:   5    -0.229319839574E+04    0.63323E-04   -0.16095E-04  4120   0.113E-02    0.240E-02
RMM:   6    -0.229319838816E+04    0.75832E-05   -0.48490E-05  3416   0.702E-03
  79 F= -.23134229E+04 E0= -.23134229E+04  d E =-.276165E-02  mag=     4.0000
       N       E                     dE             d eps       ncg     rms          rms(c)
DAV:   1    -0.229319709592E+04    0.12998E-02   -0.22263E-01  4544   0.510E-01    0.140E-01
RMM:   2    -0.229319858110E+04   -0.14852E-02   -0.15570E-02  5572   0.869E-02    0.815E-02
RMM:   3    -0.229319865323E+04   -0.72135E-04   -0.13223E-03  4705   0.343E-02    0.989E-02
RMM:   4    -0.229319857776E+04    0.75472E-04   -0.16121E-04  3074   0.848E-03    0.404E-02
RMM:   5    -0.229319855291E+04    0.24855E-04   -0.66028E-05  3525   0.721E-03    0.143E-02
RMM:   6    -0.229319854921E+04    0.36983E-05   -0.17662E-05  2839   0.586E-03
  80 F= -.23134233E+04 E0= -.23134233E+04  d E =-.310667E-02  mag=     4.0000
       N       E                     dE             d eps       ncg     rms          rms(c)
DAV:   1    -0.229319648822E+04    0.20647E-02   -0.54101E-01  4376   0.767E-01    0.203E-01
RMM:   2    -0.229320096558E+04   -0.44774E-02   -0.45373E-02  5359   0.126E-01    0.161E-01
RMM:   3    -0.229320120835E+04   -0.24277E-03   -0.44105E-03  4741   0.561E-02    0.156E-01
RMM:   4    -0.229320102540E+04    0.18295E-03   -0.44890E-04  4005   0.117E-02    0.550E-02
RMM:   5    -0.229320098094E+04    0.44464E-04   -0.10493E-04  3679   0.907E-03    0.246E-02
RMM:   6    -0.229320097700E+04    0.39354E-05   -0.53230E-05  3463   0.720E-03
  81 F= -.23134262E+04 E0= -.23134262E+04  d E =-.287001E-02  mag=     4.0000
       N       E                     dE             d eps       ncg     rms          rms(c)
DAV:   1    -0.229319202285E+04    0.89581E-02   -0.11706E+00  4376   0.113E+00    0.299E-01
RMM:   2    -0.229320176391E+04   -0.97411E-02   -0.98673E-02  5452   0.186E-01    0.241E-01
RMM:   3    -0.229320221719E+04   -0.45328E-03   -0.91168E-03  5038   0.725E-02    0.228E-01
RMM:   4    -0.229320182892E+04    0.38827E-03   -0.96637E-04  4695   0.167E-02    0.811E-02
RMM:   5    -0.229320173065E+04    0.98271E-04   -0.22479E-04  4201   0.124E-02    0.366E-02
RMM:   6    -0.229320171893E+04    0.11720E-04   -0.10718E-04  4016   0.939E-03    0.177E-02
RMM:   7    -0.229320171690E+04    0.20291E-05   -0.15162E-05  2826   0.621E-03
  82 F= -.23134275E+04 E0= -.23134275E+04  d E =-.424498E-02  mag=     4.0000
       N       E                     dE             d eps       ncg     rms          rms(c)
DAV:   1    -0.229319953089E+04    0.21880E-02   -0.44488E-01  4432   0.679E-01    0.196E-01
RMM:   2    -0.229320384174E+04   -0.43108E-02   -0.42430E-02  5482   0.116E-01    0.193E-01
RMM:   3    -0.229320396960E+04   -0.12786E-03   -0.39683E-03  4839   0.430E-02    0.148E-01
RMM:   4    -0.229320378666E+04    0.18294E-03   -0.40326E-04  3883   0.109E-02    0.509E-02
RMM:   5    -0.229320374907E+04    0.37590E-04   -0.85470E-05  3567   0.843E-03    0.249E-02
RMM:   6    -0.229320374464E+04    0.44235E-05   -0.46559E-05  3051   0.697E-03
  83 F= -.23134301E+04 E0= -.23134301E+04  d E =-.261164E-02  mag=     4.0000
       N       E                     dE             d eps       ncg     rms          rms(c)
DAV:   1    -0.229318938777E+04    0.14361E-01   -0.15752E+00  4376   0.128E+00    0.369E-01
RMM:   2    -0.229320466417E+04   -0.15276E-01   -0.15036E-01  5486   0.218E-01    0.362E-01
RMM:   3    -0.229320511364E+04   -0.44947E-03   -0.14058E-02  5117   0.795E-02    0.276E-01
RMM:   4    -0.229320447322E+04    0.64042E-03   -0.14339E-03  4694   0.199E-02    0.965E-02
RMM:   5    -0.229320433747E+04    0.13575E-03   -0.31566E-04  4711   0.148E-02    0.462E-02
RMM:   6    -0.229320431755E+04    0.19918E-04   -0.15900E-04  4181   0.104E-02    0.127E-02
RMM:   7    -0.229320431642E+04    0.11349E-05   -0.21335E-05  2834   0.595E-03
  84 F= -.23134318E+04 E0= -.23134318E+04  d E =-.426550E-02  mag=     4.0000
       N       E                     dE             d eps       ncg     rms          rms(c)
DAV:   1    -0.229320127048E+04    0.30471E-02   -0.38173E-01  4464   0.594E-01    0.188E-01
RMM:   2    -0.229320624404E+04   -0.49736E-02   -0.48546E-02  5583   0.106E-01    0.210E-01
RMM:   3    -0.229320636797E+04   -0.12393E-03   -0.46856E-03  4761   0.395E-02    0.127E-01
RMM:   4    -0.229320624049E+04    0.12748E-03   -0.42367E-04  3072   0.953E-03    0.486E-02
RMM:   5    -0.229320620996E+04    0.30525E-04   -0.66720E-05  2985   0.665E-03    0.279E-02
RMM:   6    -0.229320620457E+04    0.53929E-05   -0.49576E-05  2935   0.655E-03
[...]
DAV:   1    -0.229347552938E+04    0.17246E-02   -0.16934E-01  4376   0.405E-01    0.144E-01
RMM:   2    -0.229347800884E+04   -0.24795E-02   -0.24681E-02  5952   0.834E-02    0.179E-01
RMM:   3    -0.229347808471E+04   -0.75870E-04   -0.21992E-03  4627   0.270E-02    0.145E-01
RMM:   4    -0.229347796327E+04    0.12144E-03   -0.24507E-04  2985   0.822E-03    0.338E-02
RMM:   5    -0.229347794231E+04    0.20962E-04   -0.58323E-05  2965   0.633E-03    0.172E-02
RMM:   6    -0.229347793977E+04    0.25384E-05   -0.26741E-05  2855   0.575E-03
 365 F= -.23136808E+04 E0= -.23136808E+04  d E =-.341839E-03  mag=     4.0000
       N       E                     dE             d eps       ncg     rms          rms(c)
DAV:   1    -0.229347784205E+04    0.10026E-03   -0.11033E-02  5016   0.104E-01    0.379E-02
RMM:   2    -0.229347800902E+04   -0.16698E-03   -0.16506E-03  5922   0.232E-02    0.510E-02
RMM:   3    -0.229347801285E+04   -0.38267E-05   -0.16392E-04  2851   0.812E-03    0.375E-02
RMM:   4    -0.229347800456E+04    0.82894E-05   -0.16890E-05  2826   0.304E-03
 366 F= -.23136808E+04 E0= -.23136808E+04  d E =-.319061E-03  mag=     4.0000
       N       E                     dE             d eps       ncg     rms          rms(c)
DAV:   1    -0.229347661734E+04    0.13955E-02   -0.16005E-01  4376   0.401E-01    0.140E-01
RMM:   2    -0.229347882347E+04   -0.22061E-02   -0.21926E-02  5924   0.800E-02    0.175E-01
RMM:   3    -0.229347887769E+04   -0.54223E-04   -0.19296E-03  4597   0.270E-02    0.140E-01
RMM:   4    -0.229347875751E+04    0.12019E-03   -0.22044E-04  2960   0.792E-03    0.309E-02
RMM:   5    -0.229347873989E+04    0.17618E-04   -0.53003E-05  2903   0.588E-03    0.157E-02
RMM:   6    -0.229347873737E+04    0.25195E-05   -0.22869E-05  2840   0.549E-03
 367 F= -.23136811E+04 E0= -.23136811E+04  d E =-.340427E-03  mag=     4.0000
       N       E                     dE             d eps       ncg     rms          rms(c)
DAV:   1    -0.229347867212E+04    0.67773E-04   -0.12495E-02  4840   0.112E-01    0.401E-02
RMM:   2    -0.229347884932E+04   -0.17721E-03   -0.17449E-03  5992   0.244E-02    0.529E-02
RMM:   3    -0.229347885302E+04   -0.36966E-05   -0.17044E-04  2863   0.833E-03    0.390E-02
RMM:   4    -0.229347884389E+04    0.91266E-05   -0.18038E-05  2820   0.314E-03
 368 F= -.23136811E+04 E0= -.23136811E+04  d E =-.336519E-03  mag=     4.0000
       N       E                     dE             d eps       ncg     rms          rms(c)
DAV:   1    -0.229347805843E+04    0.79459E-03   -0.13349E-01  4376   0.379E-01    0.133E-01
RMM:   2    -0.229347966544E+04   -0.16070E-02   -0.16014E-02  5862   0.738E-02    0.161E-01
RMM:   3    -0.229347969288E+04   -0.27445E-04   -0.14379E-03  4458   0.260E-02    0.134E-01
RMM:   4    -0.229347957504E+04    0.11784E-03   -0.16593E-04  3026   0.789E-03    0.285E-02
RMM:   5    -0.229347955781E+04    0.17231E-04   -0.56627E-05  3089   0.639E-03    0.138E-02
RMM:   6    -0.229347955527E+04    0.25395E-05   -0.19185E-05  2834   0.549E-03
 369 F= -.23136815E+04 E0= -.23136815E+04  d E =-.357546E-03  mag=     4.0000
       N       E                     dE             d eps       ncg     rms          rms(c)
DAV:   1    -0.229347939729E+04    0.16052E-03   -0.22121E-02  4696   0.154E-01    0.553E-02
RMM:   2    -0.229347967200E+04   -0.27471E-03   -0.27140E-03  6127   0.322E-02    0.691E-02
RMM:   3    -0.229347967606E+04   -0.40614E-05   -0.26323E-04  3003   0.109E-02    0.549E-02
RMM:   4    -0.229347965649E+04    0.19578E-04   -0.28802E-05  2836   0.410E-03    0.118E-02
RMM:   5    -0.229347965329E+04    0.31907E-05   -0.99773E-06  2814   0.287E-03
 370 F= -.23136814E+04 E0= -.23136814E+04  d E =-.310682E-03  mag=     4.0000
       N       E                     dE             d eps       ncg     rms          rms(c)
DAV:   1    -0.229347947538E+04    0.18111E-03   -0.10974E-02  4448   0.108E-01    0.391E-02
RMM:   2    -0.229347961244E+04   -0.13706E-03   -0.13018E-03  5895   0.223E-02    0.582E-02
RMM:   3    -0.229347960571E+04    0.67294E-05   -0.12912E-04  2876   0.831E-03    0.337E-02
RMM:   4    -0.229347959856E+04    0.71457E-05   -0.13305E-05  2796   0.296E-03
 371 F= -.23136815E+04 E0= -.23136815E+04  d E =-.356273E-03  mag=     4.0000
       N       E                     dE             d eps       ncg     rms          rms(c)
DAV:   1    -0.229347905046E+04    0.55525E-03   -0.99640E-02  4376   0.327E-01    0.120E-01
RMM:   2    -0.229348027171E+04   -0.12212E-02   -0.11871E-02  5866   0.643E-02    0.160E-01
RMM:   3    -0.229348025923E+04    0.12480E-04   -0.11386E-03  4174   0.228E-02    0.115E-01
RMM:   4    -0.229348017435E+04    0.84876E-04   -0.12712E-04  2896   0.712E-03    0.236E-02
RMM:   5    -0.229348016212E+04    0.12233E-04   -0.38939E-05  2874   0.554E-03    0.121E-02
RMM:   6    -0.229348016025E+04    0.18690E-05   -0.15326E-05  2819   0.504E-03
 372 F= -.23136817E+04 E0= -.23136817E+04  d E =-.243521E-03  mag=     4.0000
       N       E                     dE             d eps       ncg     rms          rms(c)
DAV:   1    -0.229348017389E+04   -0.11771E-04   -0.47503E-04  5088   0.232E-02    0.913E-03
RMM:   2    -0.229348018092E+04   -0.70275E-05   -0.65528E-05  2986   0.564E-03
 373 F= -.23136817E+04 E0= -.23136817E+04  d E =-.241353E-03  mag=     4.0000
       N       E                     dE             d eps       ncg     rms          rms(c)
DAV:   1    -0.229348016305E+04    0.10842E-04   -0.27562E-04  4464   0.171E-02    0.788E-03
RMM:   2    -0.229348016697E+04   -0.39247E-05   -0.31224E-05  2605   0.393E-03
 374 F= -.23136817E+04 E0= -.23136817E+04  d E =-.243967E-03  mag=     4.0000
       N       E                     dE             d eps       ncg     rms          rms(c)
DAV:   1    -0.229348001314E+04    0.14991E-03   -0.48876E-02  4376   0.230E-01    0.840E-02
RMM:   2    -0.229348060315E+04   -0.59001E-03   -0.56745E-03  5923   0.459E-02    0.116E-01
RMM:   3    -0.229348058854E+04    0.14604E-04   -0.55279E-04  3642   0.176E-02    0.768E-02
RMM:   4    -0.229348054975E+04    0.38794E-04   -0.57330E-05  2838   0.557E-03    0.175E-02
RMM:   5    -0.229348054418E+04    0.55648E-05   -0.22215E-05  2824   0.442E-03
 375 F= -.23136819E+04 E0= -.23136819E+04  d E =-.209717E-03  mag=     4.0000
       N       E                     dE             d eps       ncg     rms          rms(c)
DAV:   1    -0.229348055346E+04   -0.37101E-05   -0.28608E-03  5192   0.560E-02    0.202E-02
RMM:   2    -0.229348058579E+04   -0.32328E-04   -0.34939E-04  4838   0.130E-02    0.122E-02
RMM:   3    -0.229348059010E+04   -0.43130E-05   -0.37085E-05  2808   0.571E-03
 376 F= -.23136819E+04 E0= -.23136819E+04  d E =-.214025E-03  mag=     4.0000
       N       E                     dE             d eps       ncg     rms          rms(c)
DAV:   1    -0.229348027071E+04    0.31508E-03   -0.52616E-02  4376   0.235E-01    0.788E-02
RMM:   2    -0.229348094935E+04   -0.67864E-03   -0.65986E-03  5998   0.469E-02    0.110E-01
RMM:   3    -0.229348094377E+04    0.55816E-05   -0.61083E-04  3325   0.153E-02    0.717E-02
RMM:   4    -0.229348091410E+04    0.29668E-04   -0.66473E-05  2850   0.534E-03    0.192E-02
RMM:   5    -0.229348090704E+04    0.70614E-05   -0.19051E-05  2814   0.416E-03
 377 F= -.23136821E+04 E0= -.23136821E+04  d E =-.160583E-03  mag=     4.0000
       N       E                     dE             d eps       ncg     rms          rms(c)
DAV:   1    -0.229348091032E+04    0.37783E-05   -0.21538E-03  5152   0.479E-02    0.162E-02
RMM:   2    -0.229348093601E+04   -0.25691E-04   -0.27940E-04  4281   0.110E-02    0.844E-03
RMM:   3    -0.229348093861E+04   -0.26016E-05   -0.28713E-05  2772   0.538E-03
 378 F= -.23136821E+04 E0= -.23136821E+04  d E =-.159537E-03  mag=     4.0000
       N       E                     dE             d eps       ncg     rms          rms(c)
DAV:   1    -0.229348070625E+04    0.22976E-03   -0.48918E-02  4376   0.228E-01    0.751E-02
RMM:   2    -0.229348131276E+04   -0.60651E-03   -0.59205E-03  5980   0.446E-02    0.102E-01
RMM:   3    -0.229348131241E+04    0.35157E-06   -0.54744E-04  3277   0.149E-02    0.701E-02
RMM:   4    -0.229348128309E+04    0.29324E-04   -0.60328E-05  2842   0.509E-03    0.173E-02
RMM:   5    -0.229348127694E+04    0.61443E-05   -0.17136E-05  2817   0.374E-03
 379 F= -.23136823E+04 E0= -.23136823E+04  d E =-.169808E-03  mag=     4.0000
       N       E                     dE             d eps       ncg     rms          rms(c)
DAV:   1    -0.229348120212E+04    0.80965E-04   -0.14877E-02  4512   0.126E-01    0.415E-02
RMM:   2    -0.229348138397E+04   -0.18185E-03   -0.18310E-03  5970   0.265E-02    0.475E-02
RMM:   3    -0.229348139263E+04   -0.86567E-05   -0.17369E-04  2883   0.884E-03    0.436E-02
RMM:   4    -0.229348138095E+04    0.11678E-04   -0.18856E-05  2823   0.335E-03    0.961E-03
RMM:   5    -0.229348137921E+04    0.17421E-05   -0.56797E-06  2783   0.213E-03
 380 F= -.23136823E+04 E0= -.23136823E+04  d E =-.177917E-03  mag=     4.0000
       N       E                     dE             d eps       ncg     rms          rms(c)
DAV:   1    -0.229348112775E+04    0.25320E-03   -0.50045E-02  4376   0.228E-01    0.746E-02
RMM:   2    -0.229348179462E+04   -0.66688E-03   -0.63877E-03  5968   0.451E-02    0.114E-01
RMM:   3    -0.229348177556E+04    0.19064E-04   -0.58982E-04  3315   0.156E-02    0.629E-02
RMM:   4    -0.229348175202E+04    0.23537E-04   -0.63046E-05  2851   0.501E-03    0.167E-02
RMM:   5    -0.229348174629E+04    0.57280E-05   -0.14676E-05  2813   0.353E-03
 381 F= -.23136824E+04 E0= -.23136824E+04  d E =-.153027E-03  mag=     4.0000
       N       E                     dE             d eps       ncg     rms          rms(c)
DAV:   1    -0.229348171041E+04    0.41613E-04   -0.12046E-02  4592   0.112E-01    0.370E-02
RMM:   2    -0.229348187275E+04   -0.16234E-03   -0.15682E-03  5905   0.237E-02    0.556E-02
RMM:   3    -0.229348186943E+04    0.33192E-05   -0.14436E-04  2858   0.791E-03    0.321E-02
RMM:   4    -0.229348186318E+04    0.62510E-05   -0.15587E-05  2825   0.293E-03
 382 F= -.23136824E+04 E0= -.23136824E+04  d E =-.163780E-03  mag=     4.0000
       N       E                     dE             d eps       ncg     rms          rms(c)
DAV:   1    -0.229348170846E+04    0.16097E-03   -0.47209E-02  4376   0.223E-01    0.767E-02
RMM:   2    -0.229348230937E+04   -0.60090E-03   -0.57773E-03  5936   0.440E-02    0.111E-01
RMM:   3    -0.229348228980E+04    0.19564E-04   -0.53157E-04  3304   0.155E-02    0.655E-02
RMM:   4    -0.229348226196E+04    0.27845E-04   -0.59674E-05  2853   0.512E-03    0.172E-02
RMM:   5    -0.229348225583E+04    0.61225E-05   -0.17947E-05  2822   0.397E-03
 383 F= -.23136826E+04 E0= -.23136826E+04  d E =-.162137E-03  mag=     4.0000
       N       E                     dE             d eps       ncg     rms          rms(c)
DAV:   1    -0.229348227936E+04   -0.17408E-04   -0.30140E-03  5072   0.565E-02    0.200E-02
RMM:   2    -0.229348231774E+04   -0.38372E-04   -0.38198E-04  4729   0.128E-02    0.256E-02
RMM:   3    -0.229348231882E+04   -0.10815E-05   -0.39027E-05  2807   0.551E-03
 384 F= -.23136826E+04 E0= -.23136826E+04  d E =-.165650E-03  mag=     4.0000
       N       E                     dE             d eps       ncg     rms          rms(c)
DAV:   1    -0.229348219320E+04    0.12454E-03   -0.34368E-02  4376   0.190E-01    0.676E-02
RMM:   2    -0.229348266374E+04   -0.47054E-03   -0.42403E-03  5976   0.385E-02    0.120E-01
RMM:   3    -0.229348260953E+04    0.54205E-04   -0.40351E-04  3110   0.129E-02    0.455E-02
RMM:   4    -0.229348259669E+04    0.12839E-04   -0.45080E-05  2845   0.447E-03    0.159E-02
RMM:   5    -0.229348259217E+04    0.45189E-05   -0.13449E-05  2826   0.352E-03
 385 F= -.23136827E+04 E0= -.23136827E+04  d E =-.116138E-03  mag=     4.0000
       N       E                     dE             d eps       ncg     rms          rms(c)
DAV:   1    -0.229348260757E+04   -0.10874E-04   -0.14948E-03  5072   0.397E-02    0.151E-02
RMM:   2    -0.229348263003E+04   -0.22459E-04   -0.19108E-04  3689   0.925E-03    0.310E-02
RMM:   3    -0.229348262599E+04    0.40382E-05   -0.20165E-05  2706   0.497E-03
 386 F= -.23136827E+04 E0= -.23136827E+04  d E =-.116393E-03  mag=     4.0000
       N       E                     dE             d eps       ncg     rms          rms(c)
DAV:   1    -0.229348251139E+04    0.11863E-03   -0.31678E-02  4376   0.184E-01    0.671E-02
RMM:   2    -0.229348293217E+04   -0.42077E-03   -0.37221E-03  5903   0.367E-02    0.121E-01
RMM:   3    -0.229348287201E+04    0.60153E-04   -0.36032E-04  3146   0.132E-02    0.442E-02
RMM:   4    -0.229348285895E+04    0.13063E-04   -0.41001E-05  2847   0.437E-03    0.150E-02
RMM:   5    -0.229348285525E+04    0.37061E-05   -0.12717E-05  2821   0.344E-03
 387 F= -.23136829E+04 E0= -.23136829E+04  d E =-.123555E-03  mag=     4.0000
       N       E                     dE             d eps       ncg     rms          rms(c)
DAV:   1    -0.229348286183E+04   -0.28828E-05   -0.96591E-04  5200   0.322E-02    0.129E-02
RMM:   2    -0.229348287674E+04   -0.14910E-04   -0.12057E-04  3218   0.763E-03    0.279E-02
RMM:   3    -0.229348287316E+04    0.35833E-05   -0.13893E-05  2570   0.450E-03
 388 F= -.23136829E+04 E0= -.23136829E+04  d E =-.122512E-03  mag=     4.0000
       N       E                     dE             d eps       ncg     rms          rms(c)
DAV:   1    -0.229348274651E+04    0.13024E-03   -0.29651E-02  4400   0.175E-01    0.638E-02
RMM:   2    -0.229348316808E+04   -0.42158E-03   -0.36903E-03  5953   0.355E-02    0.122E-01
RMM:   3    -0.229348310516E+04    0.62926E-04   -0.35879E-04  3070   0.129E-02    0.394E-02
RMM:   4    -0.229348309540E+04    0.97578E-05   -0.40264E-05  2849   0.417E-03
 389 F= -.23136830E+04 E0= -.23136830E+04  d E =-.104610E-03  mag=     4.0000
       N       E                     dE             d eps       ncg     rms          rms(c)
DAV:   1    -0.229348310142E+04    0.37376E-05   -0.72519E-04  5192   0.275E-02    0.147E-02
RMM:   2    -0.229348311698E+04   -0.15562E-04   -0.97281E-05  3038   0.641E-03    0.379E-02
RMM:   3    -0.229348310903E+04    0.79525E-05   -0.13788E-05  2562   0.403E-03
 390 F= -.23136830E+04 E0= -.23136830E+04  d E =-.988631E-04  mag=     4.0000
       N       E                     dE             d eps       ncg     rms          rms(c)
DAV:   1    -0.229348303126E+04    0.85723E-04   -0.26887E-02  4388   0.167E-01    0.600E-02
RMM:   2    -0.229348339337E+04   -0.36211E-03   -0.33634E-03  5827   0.330E-02    0.970E-02
RMM:   3    -0.229348336689E+04    0.26481E-04   -0.32390E-04  3035   0.127E-02    0.464E-02
RMM:   4    -0.229348335299E+04    0.13899E-04   -0.35358E-05  2845   0.396E-03    0.133E-02
RMM:   5    -0.229348334975E+04    0.32427E-05   -0.99350E-06  2809   0.292E-03
 391 F= -.23136831E+04 E0= -.23136831E+04  d E =-.101795E-03  mag=     4.0000
       N       E                     dE             d eps       ncg     rms          rms(c)
DAV:   1    -0.229348336292E+04   -0.99248E-05   -0.28341E-03  4856   0.542E-02    0.203E-02
RMM:   2    -0.229348340352E+04   -0.40603E-04   -0.36425E-04  4406   0.121E-02    0.367E-02
RMM:   3    -0.229348339891E+04    0.46078E-05   -0.37263E-05  2813   0.559E-03
 392 F= -.23136831E+04 E0= -.23136831E+04  d E =-.105129E-03  mag=     4.0000
       N       E                     dE             d eps       ncg     rms          rms(c)
DAV:   1    -0.229348332310E+04    0.80416E-04   -0.23307E-02  4388   0.154E-01    0.575E-02
RMM:   2    -0.229348367372E+04   -0.35061E-03   -0.30689E-03  5942   0.320E-02    0.109E-01
RMM:   3    -0.229348362321E+04    0.50513E-04   -0.29857E-04  2963   0.115E-02    0.347E-02
RMM:   4    -0.229348361594E+04    0.72672E-05   -0.34329E-05  2849   0.373E-03
 393 F= -.23136831E+04 E0= -.23136831E+04  d E =-.926868E-04  mag=     4.0000
       N       E                     dE             d eps       ncg     rms          rms(c)
DAV:   1    -0.229348362299E+04    0.21435E-06   -0.28381E-03  4968   0.538E-02    0.195E-02
RMM:   2    -0.229348365703E+04   -0.34037E-04   -0.36074E-04  4251   0.113E-02    0.183E-02
RMM:   3    -0.229348366110E+04   -0.40751E-05   -0.39466E-05  2817   0.572E-03
 394 F= -.23136831E+04 E0= -.23136831E+04  d E =-.932500E-04  mag=     4.0000
       N       E                     dE             d eps       ncg     rms          rms(c)
DAV:   1    -0.229348358147E+04    0.75558E-04   -0.20993E-02  4376   0.146E-01    0.524E-02
RMM:   2    -0.229348387753E+04   -0.29605E-03   -0.27226E-03  5922   0.293E-02    0.895E-02
RMM:   3    -0.229348385375E+04    0.23776E-04   -0.25531E-04  2930   0.108E-02    0.391E-02
RMM:   4    -0.229348384327E+04    0.10477E-04   -0.28595E-05  2842   0.354E-03    0.121E-02
RMM:   5    -0.229348384054E+04    0.27296E-05   -0.84870E-06  2807   0.266E-03
 395 F= -.23136832E+04 E0= -.23136832E+04  d E =-.749491E-04  mag=     4.0000
       N       E                     dE             d eps       ncg     rms          rms(c)
DAV:   1    -0.229348384134E+04    0.19342E-05   -0.37428E-03  4712   0.616E-02    0.228E-02
RMM:   2    -0.229348389630E+04   -0.54965E-04   -0.49405E-04  4816   0.137E-02    0.417E-02
RMM:   3    -0.229348389036E+04    0.59459E-05   -0.49244E-05  2822   0.579E-03
 396 F= -.23136832E+04 E0= -.23136832E+04  d E =-.800806E-04  mag=     4.0000
       N       E                     dE             d eps       ncg     rms          rms(c)
DAV:   1    -0.229348380448E+04    0.91827E-04   -0.22944E-02  4376   0.153E-01    0.566E-02
RMM:   2    -0.229348414312E+04   -0.33864E-03   -0.29693E-03  5936   0.314E-02    0.107E-01
RMM:   3    -0.229348409546E+04    0.47657E-04   -0.28914E-04  2947   0.112E-02    0.344E-02
RMM:   4    -0.229348408803E+04    0.74281E-05   -0.33860E-05  2849   0.370E-03
 397 F= -.23136833E+04 E0= -.23136833E+04  d E =-.909851E-04  mag=     4.0000
       N       E                     dE             d eps       ncg     rms          rms(c)
DAV:   1    -0.229348408675E+04    0.87108E-05   -0.33187E-03  4920   0.581E-02    0.207E-02
RMM:   2    -0.229348412558E+04   -0.38827E-04   -0.41527E-04  4452   0.121E-02    0.169E-02
RMM:   3    -0.229348413055E+04   -0.49787E-05   -0.43448E-05  2824   0.586E-03
 398 F= -.23136833E+04 E0= -.23136833E+04  d E =-.918408E-04  mag=     4.0000
       N       E                     dE             d eps       ncg     rms          rms(c)
DAV:   1    -0.229348403315E+04    0.92425E-04   -0.24662E-02  4376   0.158E-01    0.571E-02
RMM:   2    -0.229348436599E+04   -0.33284E-03   -0.30604E-03  5907   0.316E-02    0.962E-02
RMM:   3    -0.229348433909E+04    0.26892E-04   -0.29145E-04  2969   0.115E-02    0.435E-02
RMM:   4    -0.229348432582E+04    0.13270E-04   -0.32331E-05  2846   0.386E-03    0.134E-02
RMM:   5    -0.229348432247E+04    0.33593E-05   -0.10789E-05  2816   0.299E-03
 399 F= -.23136834E+04 E0= -.23136834E+04  d E =-.750868E-04  mag=     4.0000
       N       E                     dE             d eps       ncg     rms          rms(c)
DAV:   1    -0.229348433285E+04   -0.70280E-05   -0.58811E-04  5008   0.246E-02    0.951E-03
RMM:   2    -0.229348434152E+04   -0.86650E-05   -0.78032E-05  3003   0.593E-03
 400 F= -.23136834E+04 E0= -.23136834E+04  d E =-.755345E-04  mag=     4.0000
       N       E                     dE             d eps       ncg     rms          rms(c)
DAV:   1    -0.229348424272E+04    0.90137E-04   -0.23823E-02  4420   0.155E-01    0.582E-02
RMM:   2    -0.229348457535E+04   -0.33263E-03   -0.29211E-03  6062   0.324E-02    0.109E-01
RMM:   3    -0.229348452861E+04    0.46735E-04   -0.30470E-04  3044   0.120E-02    0.375E-02
RMM:   4    -0.229348451854E+04    0.10073E-04   -0.32720E-05  2845   0.410E-03    0.134E-02
RMM:   5    -0.229348451570E+04    0.28386E-05   -0.11678E-05  2815   0.324E-03
 401 F= -.23136835E+04 E0= -.23136835E+04  d E =-.864594E-04  mag=     4.0000
