       N       E                     dE             d eps       ncg     rms          rms(c)
DAV:   1     0.126931753433E+05    0.12693E+05   -0.83754E+05  4560   0.142E+03
DAV:   2    -0.115464706679E+04   -0.13848E+05   -0.13274E+05  5120   0.324E+02
DAV:   3    -0.249736666298E+04   -0.13427E+04   -0.13300E+04  5520   0.108E+02
DAV:   4    -0.253211279608E+04   -0.34746E+02   -0.34562E+02  5960   0.236E+01
DAV:   5    -0.253310008359E+04   -0.98729E+00   -0.98546E+00  5800   0.304E+00    0.171E+02
RMM:   6    -0.149690317474E+04    0.10362E+04   -0.19262E+03  4503   0.377E+01    0.726E+01
RMM:   7    -0.167074633795E+04   -0.17384E+03   -0.29377E+02  5087   0.141E+01    0.563E+01
RMM:   8    -0.171010228357E+04   -0.39356E+02   -0.10165E+02  5266   0.867E+00    0.448E+01
RMM:   9    -0.177237033179E+04   -0.62268E+02   -0.55719E+01  5118   0.699E+00    0.310E+01
RMM:  10    -0.192142112203E+04   -0.14905E+03   -0.59347E+01  5133   0.705E+00    0.250E+01
RMM:  11    -0.200558629116E+04   -0.84165E+02   -0.34750E+01  5122   0.486E+00    0.239E+01
RMM:  12    -0.208449878875E+04   -0.78912E+02   -0.34342E+01  4965   0.462E+00    0.167E+01
RMM:  13    -0.215660526393E+04   -0.72106E+02   -0.31414E+01  4801   0.438E+00    0.114E+01
RMM:  14    -0.226986241368E+04   -0.11326E+03   -0.10010E+02  4495   0.697E+00    0.789E+00
RMM:  15    -0.231321946687E+04   -0.43357E+02   -0.39113E+01  4521   0.500E+00    0.596E+00
RMM:  16    -0.232546178494E+04   -0.12242E+02   -0.14843E+01  4954   0.271E+00    0.327E+00
RMM:  17    -0.232895178676E+04   -0.34900E+01   -0.32634E+00  5021   0.126E+00    0.225E+00
RMM:  18    -0.233033824273E+04   -0.13865E+01   -0.72534E-01  4936   0.635E-01    0.381E+00
RMM:  19    -0.233034430280E+04   -0.60601E-02   -0.99495E-02  5477   0.273E-01    0.279E+00
RMM:  20    -0.233093908118E+04   -0.59478E+00   -0.17508E-01  4525   0.263E-01    0.219E+00
RMM:  21    -0.233124925522E+04   -0.31017E+00   -0.14055E-01  4579   0.233E-01    0.171E+00
RMM:  22    -0.233132397711E+04   -0.74722E-01   -0.48096E-02  4792   0.155E-01    0.220E+00
RMM:  23    -0.233131593224E+04    0.80449E-02   -0.24488E-02  4791   0.929E-02    0.287E+00
RMM:  24    -0.233137318489E+04   -0.57253E-01   -0.14063E-02  4728   0.693E-02    0.209E+00
RMM:  25    -0.233146288769E+04   -0.89703E-01   -0.36302E-02  4629   0.968E-02    0.146E+00
RMM:  26    -0.233158858776E+04   -0.12570E+00   -0.71549E-02  4657   0.134E-01    0.350E+00
RMM:  27    -0.233160668608E+04   -0.18098E-01   -0.12575E-02  4544   0.754E-02    0.329E+00
RMM:  28    -0.233162363735E+04   -0.16951E-01   -0.47514E-03  5087   0.257E-02    0.339E+00
RMM:  29    -0.233160062573E+04    0.23012E-01   -0.16104E-03  4814   0.210E-02    0.317E+00
RMM:  30    -0.233156013691E+04    0.40489E-01   -0.90581E-03  4724   0.392E-02    0.227E+00
RMM:  31    -0.233150248250E+04    0.57654E-01   -0.73551E-02  4869   0.116E-01    0.140E+00
RMM:  32    -0.233139137162E+04    0.11111E+00   -0.10261E-01  4759   0.177E-01    0.256E+00
RMM:  33    -0.233135088896E+04    0.40483E-01   -0.17482E-02  4920   0.720E-02    0.272E+00
RMM:  34    -0.233128608121E+04    0.64808E-01   -0.35087E-02  4510   0.775E-02    0.279E+00
RMM:  35    -0.233126529554E+04    0.20786E-01   -0.81054E-03  4160   0.428E-02    0.270E+00
RMM:  36    -0.233136119649E+04   -0.95901E-01   -0.43333E-02  4390   0.773E-02    0.251E+00
RMM:  37    -0.233141026727E+04   -0.49071E-01   -0.31817E-02  4403   0.750E-02    0.245E+00
RMM:  38    -0.233145281641E+04   -0.42549E-01   -0.47005E-02  4709   0.106E-01    0.235E+00
RMM:  39    -0.233153659245E+04   -0.83776E-01   -0.13134E-01  4933   0.156E-01    0.195E+00
RMM:  40    -0.233170202629E+04   -0.16543E+00   -0.13924E-01  4968   0.166E-01    0.345E+00
RMM:  41    -0.233170413482E+04   -0.21085E-02   -0.15373E-02  4915   0.730E-02    0.325E+00
RMM:  42    -0.233169250825E+04    0.11627E-01   -0.20938E-03  4579   0.150E-02    0.340E+00
RMM:  43    -0.233165401688E+04    0.38491E-01   -0.68389E-03  4734   0.333E-02    0.376E+00
RMM:  44    -0.233175527753E+04   -0.10126E+00   -0.48791E-02  4893   0.842E-02    0.245E+00
RMM:  45    -0.233175065330E+04    0.46242E-02   -0.18308E-03  4327   0.334E-02    0.252E+00
RMM:  46    -0.233174996468E+04    0.68862E-03   -0.30685E-04  3897   0.639E-03    0.257E+00
RMM:  47    -0.233179067167E+04   -0.40707E-01   -0.25204E-02  5005   0.645E-02    0.150E+00
RMM:  48    -0.233181190416E+04   -0.21232E-01   -0.29701E-02  4988   0.731E-02    0.797E-01
RMM:  49    -0.233181396734E+04   -0.20632E-02   -0.41859E-03  4823   0.303E-02    0.675E-01
RMM:  50    -0.233181104659E+04    0.29208E-02   -0.46463E-02  4844   0.789E-02    0.845E-01
RMM:  51    -0.233182040137E+04   -0.93548E-02   -0.81365E-03  4929   0.476E-02    0.351E-01
RMM:  52    -0.233182249518E+04   -0.20938E-02   -0.38876E-03  4686   0.291E-02    0.306E-01
RMM:  53    -0.233182275320E+04   -0.25803E-03   -0.14545E-03  4529   0.197E-02    0.374E-01
RMM:  54    -0.233182407404E+04   -0.13208E-02   -0.11531E-03  4249   0.164E-02    0.260E-01
RMM:  55    -0.233182520868E+04   -0.11346E-02   -0.90541E-04  4127   0.145E-02    0.820E-02
RMM:  56    -0.233182556681E+04   -0.35813E-03   -0.65493E-04  4079   0.123E-02    0.328E-02
RMM:  57    -0.233182578817E+04   -0.22136E-03   -0.10521E-04  3514   0.707E-03    0.300E-02
RMM:  58    -0.233182588704E+04   -0.98866E-04   -0.64578E-05  3256   0.502E-03    0.140E-02
RMM:  59    -0.233182596148E+04   -0.74444E-04   -0.45079E-05  3109   0.439E-03    0.288E-02
RMM:  60    -0.233182599754E+04   -0.36060E-04   -0.13267E-05  2881   0.337E-03    0.102E-02
RMM:  61    -0.233182601568E+04   -0.18134E-04   -0.10431E-05  2658   0.264E-03    0.548E-03
RMM:  62    -0.233182602341E+04   -0.77368E-05   -0.50997E-06  2612   0.229E-03
   1 F= -.23528245E+04 E0= -.23528245E+04  d E =-.614158E-06  mag=     6.0018
       N       E                     dE             d eps       ncg     rms          rms(c)
DAV:   1    -0.233179631813E+04    0.29698E-01   -0.21103E+00  4280   0.693E-01    0.285E-01
RMM:   2    -0.233179606494E+04    0.25319E-03   -0.14288E-02  3986   0.504E-02    0.167E-01
RMM:   3    -0.233179564963E+04    0.41532E-03   -0.32320E-03  4490   0.292E-02    0.111E-01
RMM:   4    -0.233179566697E+04   -0.17346E-04   -0.76758E-04  3919   0.112E-02    0.118E-01
RMM:   5    -0.233179554575E+04    0.12123E-03   -0.97794E-05  2889   0.608E-03    0.216E-02
RMM:   6    -0.233179553768E+04    0.80636E-05   -0.72438E-05  2748   0.344E-03
   2 F= -.23527939E+04 E0= -.23527939E+04  d E =-.560482E-06  mag=     6.0006
       N       E                     dE             d eps       ncg     rms          rms(c)
DAV:   1    -0.233182687951E+04   -0.31334E-01   -0.83793E+00  4400   0.130E+00    0.563E-01
RMM:   2    -0.233182549624E+04    0.13833E-02   -0.51381E-02  3997   0.111E-01    0.335E-01
RMM:   3    -0.233182441486E+04    0.10814E-02   -0.13316E-02  4903   0.685E-02    0.396E-01
RMM:   4    -0.233182324636E+04    0.11685E-02   -0.33483E-03  4816   0.235E-02    0.120E-01
RMM:   5    -0.233182315094E+04    0.95419E-04   -0.37650E-04  3678   0.103E-02    0.569E-02
RMM:   6    -0.233182315681E+04   -0.58617E-05   -0.19833E-04  3456   0.637E-03    0.730E-02
RMM:   7    -0.233182310940E+04    0.47406E-04   -0.10147E-04  3332   0.539E-03    0.206E-02
RMM:   8    -0.233182310627E+04    0.31326E-05   -0.10183E-05  2630   0.310E-03
   3 F= -.23528216E+04 E0= -.23528216E+04  d E =-.670129E-06  mag=     6.0002
       N       E                     dE             d eps       ncg     rms          rms(c)
DAV:   1    -0.233181198730E+04    0.11122E-01   -0.42661E+00  4320   0.106E+00    0.414E-01
RMM:   2    -0.233181096319E+04    0.10241E-02   -0.27870E-02  3943   0.783E-02    0.248E-01
RMM:   3    -0.233181097872E+04   -0.15536E-04   -0.73517E-03  4266   0.488E-02    0.351E-01
RMM:   4    -0.233180991750E+04    0.10612E-02   -0.23864E-03  4821   0.203E-02    0.872E-02
RMM:   5    -0.233180983806E+04    0.79437E-04   -0.20895E-04  3316   0.684E-03    0.372E-02
RMM:   6    -0.233180983317E+04    0.48921E-05   -0.14678E-04  3149   0.549E-03    0.317E-02
RMM:   7    -0.233180982643E+04    0.67378E-05   -0.21264E-05  2619   0.356E-03
   4 F= -.23528080E+04 E0= -.23528080E+04  d E =-.575643E-06  mag=     6.0001
       N       E                     dE             d eps       ncg     rms          rms(c)
DAV:   1    -0.233180602202E+04    0.38112E-02   -0.86179E+00  4400   0.141E+00    0.621E-01
RMM:   2    -0.233180217636E+04    0.38457E-02   -0.39493E-02  3923   0.988E-02    0.351E-01
RMM:   3    -0.233180104993E+04    0.11264E-02   -0.15140E-02  4663   0.607E-02    0.303E-01
RMM:   4    -0.233180048320E+04    0.56673E-03   -0.34953E-03  5095   0.249E-02    0.194E-01
RMM:   5    -0.233180012324E+04    0.35996E-03   -0.29349E-04  3553   0.888E-03    0.369E-02
RMM:   6    -0.233180009787E+04    0.25367E-04   -0.24848E-04  3399   0.633E-03    0.267E-02
RMM:   7    -0.233180009998E+04   -0.21038E-05   -0.38857E-05  2843   0.538E-03
   5 F= -.23527988E+04 E0= -.23527988E+04  d E =-.666638E-06  mag=     6.0000
       N       E                     dE             d eps       ncg     rms          rms(c)
DAV:   1    -0.233180791432E+04   -0.78164E-02   -0.42344E+00  4400   0.996E-01    0.389E-01
RMM:   2    -0.233180679598E+04    0.11183E-02   -0.19665E-02  3822   0.655E-02    0.234E-01
RMM:   3    -0.233180655947E+04    0.23651E-03   -0.52246E-03  4262   0.403E-02    0.320E-01
RMM:   4    -0.233180580998E+04    0.74949E-03   -0.23232E-03  4811   0.187E-02    0.998E-02
RMM:   5    -0.233180571269E+04    0.97297E-04   -0.15826E-04  3213   0.771E-03    0.253E-02
RMM:   6    -0.233180571260E+04    0.82306E-07   -0.58261E-05  2851   0.375E-03
   6 F= -.23528044E+04 E0= -.23528044E+04  d E =-.650525E-06  mag=     6.0000
       N       E                     dE             d eps       ncg     rms          rms(c)
DAV:   1    -0.233182445585E+04   -0.18743E-01   -0.84459E+00  4400   0.131E+00    0.549E-01
RMM:   2    -0.233182199093E+04    0.24649E-02   -0.40168E-02  3935   0.894E-02    0.334E-01
RMM:   3    -0.233182213490E+04   -0.14397E-03   -0.94326E-03  4505   0.554E-02    0.530E-01
RMM:   4    -0.233181981622E+04    0.23187E-02   -0.55516E-03  4954   0.288E-02    0.148E-01
RMM:   5    -0.233181962721E+04    0.18902E-03   -0.32380E-04  3453   0.126E-02    0.384E-02
RMM:   6    -0.233181962769E+04   -0.47979E-06   -0.96726E-05  3254   0.470E-03
   7 F= -.23528179E+04 E0= -.23528179E+04  d E =-.595970E-06  mag=     6.0000
       N       E                     dE             d eps       ncg     rms          rms(c)
DAV:   1    -0.233182615658E+04   -0.65294E-02   -0.44292E+00  4400   0.105E+00    0.416E-01
RMM:   2    -0.233182474188E+04    0.14147E-02   -0.26191E-02  3815   0.794E-02    0.247E-01
RMM:   3    -0.233182373733E+04    0.10045E-02   -0.81641E-03  4641   0.502E-02    0.186E-01
RMM:   4    -0.233182358170E+04    0.15563E-03   -0.15542E-03  4644   0.171E-02    0.114E-01
RMM:   5    -0.233182341118E+04    0.17052E-03   -0.14531E-04  3523   0.676E-03    0.264E-02
RMM:   6    -0.233182341039E+04    0.78954E-06   -0.67238E-05  2851   0.460E-03
   8 F= -.23528222E+04 E0= -.23528222E+04  d E =-.548987E-06  mag=     6.0000
       N       E                     dE             d eps       ncg     rms          rms(c)
DAV:   1    -0.233179286957E+04    0.30542E-01   -0.85640E+00  4480   0.150E+00    0.603E-01
RMM:   2    -0.233178963444E+04    0.32351E-02   -0.46829E-02  3879   0.104E-01    0.354E-01
RMM:   3    -0.233178865771E+04    0.97673E-03   -0.15154E-02  4610   0.639E-02    0.368E-01
RMM:   4    -0.233178758810E+04    0.10696E-02   -0.35486E-03  4888   0.238E-02    0.973E-02
RMM:   5    -0.233178737514E+04    0.21296E-03   -0.41951E-04  3878   0.943E-03    0.354E-02
RMM:   6    -0.233178739588E+04   -0.20740E-04   -0.90544E-05  2993   0.583E-03    0.508E-02
RMM:   7    -0.233178737478E+04    0.21108E-04   -0.32238E-05  2667   0.323E-03    0.185E-02
RMM:   8    -0.233178737261E+04    0.21705E-05   -0.82203E-06  2611   0.217E-03
   9 F= -.23527855E+04 E0= -.23527855E+04  d E =-.702969E-06  mag=     6.0000
       N       E                     dE             d eps       ncg     rms          rms(c)
DAV:   1    -0.233181185658E+04   -0.24482E-01   -0.43108E+00  4400   0.101E+00    0.427E-01
RMM:   2    -0.233181020370E+04    0.16529E-02   -0.26664E-02  3813   0.816E-02    0.260E-01
RMM:   3    -0.233180974273E+04    0.46097E-03   -0.68873E-03  4138   0.513E-02    0.281E-01
RMM:   4    -0.233180925457E+04    0.48816E-03   -0.25939E-03  4499   0.208E-02    0.994E-02
RMM:   5    -0.233180910768E+04    0.14689E-03   -0.22465E-04  3525   0.103E-02    0.270E-02
RMM:   6    -0.233180911641E+04   -0.87374E-05   -0.62624E-05  2930   0.399E-03
  10 F= -.23528078E+04 E0= -.23528078E+04  d E =-.707547E-06  mag=     6.0000
       N       E                     dE             d eps       ncg     rms          rms(c)
DAV:   1    -0.233180467544E+04    0.44322E-02   -0.86962E+00  4480   0.147E+00    0.609E-01
RMM:   2    -0.233180048898E+04    0.41865E-02   -0.42003E-02  3910   0.102E-01    0.364E-01
RMM:   3    -0.233179944942E+04    0.10396E-02   -0.14814E-02  4694   0.612E-02    0.330E-01
RMM:   4    -0.233179854878E+04    0.90065E-03   -0.32175E-03  5114   0.242E-02    0.164E-01
RMM:   5    -0.233179828770E+04    0.26108E-03   -0.25699E-04  3696   0.851E-03    0.575E-02
RMM:   6    -0.233179827791E+04    0.97946E-05   -0.10482E-04  3040   0.506E-03    0.548E-02
RMM:   7    -0.233179825182E+04    0.26089E-04   -0.48427E-05  2982   0.389E-03    0.181E-02
RMM:   8    -0.233179824942E+04    0.23929E-05   -0.12520E-05  2736   0.290E-03
  11 F= -.23527965E+04 E0= -.23527965E+04  d E =-.565576E-06  mag=     6.0000
       N       E                     dE             d eps       ncg     rms          rms(c)
DAV:   1    -0.233180325926E+04   -0.50074E-02   -0.43342E+00  4480   0.105E+00    0.439E-01
RMM:   2    -0.233180118863E+04    0.20706E-02   -0.20720E-02  3838   0.710E-02    0.259E-01
RMM:   3    -0.233180037406E+04    0.81457E-03   -0.64849E-03  4574   0.432E-02    0.218E-01
RMM:   4    -0.233180013865E+04    0.23541E-03   -0.19881E-03  4700   0.176E-02    0.137E-01
RMM:   5    -0.233179996423E+04    0.17442E-03   -0.13961E-04  3326   0.713E-03    0.312E-02
RMM:   6    -0.233179996137E+04    0.28639E-05   -0.48341E-05  2855   0.372E-03
  12 F= -.23527986E+04 E0= -.23527986E+04  d E =-.668767E-06  mag=     6.0000
       N       E                     dE             d eps       ncg     rms          rms(c)
DAV:   1    -0.233181650140E+04   -0.16537E-01   -0.86164E+00  4480   0.148E+00    0.619E-01
RMM:   2    -0.233181244601E+04    0.40554E-02   -0.36174E-02  3891   0.964E-02    0.363E-01
RMM:   3    -0.233181087736E+04    0.15687E-02   -0.16931E-02  4685   0.617E-02    0.266E-01
RMM:   4    -0.233181034337E+04    0.53399E-03   -0.24137E-03  4885   0.221E-02    0.154E-01
RMM:   5    -0.233181009182E+04    0.25156E-03   -0.20334E-04  3554   0.781E-03    0.396E-02
RMM:   6    -0.233181008198E+04    0.98352E-05   -0.86356E-05  3022   0.464E-03
  13 F= -.23528084E+04 E0= -.23528084E+04  d E =-.531645E-06  mag=     6.0000
       N       E                     dE             d eps       ncg     rms          rms(c)
DAV:   1    -0.233183034016E+04   -0.20248E-01   -0.27063E+00  4200   0.784E-01    0.400E-01
RMM:   2    -0.233182875182E+04    0.15883E-02   -0.14477E-02  3786   0.557E-02    0.238E-01
RMM:   3    -0.233182808729E+04    0.66453E-03   -0.58006E-03  4623   0.344E-02    0.147E-01
RMM:   4    -0.233182791617E+04    0.17113E-03   -0.85684E-04  3943   0.137E-02    0.887E-02
RMM:   5    -0.233182781111E+04    0.10506E-03   -0.91846E-05  3189   0.530E-03    0.304E-02
RMM:   6    -0.233182780942E+04    0.16872E-05   -0.42834E-05  2569   0.354E-03
  14 F= -.23528264E+04 E0= -.23528264E+04  d E =-.585394E-06  mag=     6.0000
       N       E                     dE             d eps       ncg     rms          rms(c)
DAV:   1    -0.233181838588E+04    0.94252E-02   -0.12593E+00  4440   0.492E-01    0.371E-01
RMM:   2    -0.233181792575E+04    0.46013E-03   -0.75286E-03  3673   0.392E-02    0.217E-01
RMM:   3    -0.233181820746E+04   -0.28172E-03   -0.29877E-03  4618   0.267E-02    0.218E-01
RMM:   4    -0.233181774069E+04    0.46678E-03   -0.60195E-04  3842   0.112E-02    0.446E-02
RMM:   5    -0.233181769625E+04    0.44431E-04   -0.19650E-04  3265   0.595E-03    0.322E-02
RMM:   6    -0.233181769915E+04   -0.28975E-05   -0.67879E-05  2773   0.489E-03
  15 F= -.23528160E+04 E0= -.23528160E+04  d E =-.627128E-06  mag=     6.0000
       N       E                     dE             d eps       ncg     rms          rms(c)
DAV:   1    -0.233182129896E+04   -0.36027E-02   -0.63279E-01  4360   0.362E-01    0.237E-01
RMM:   2    -0.233182139261E+04   -0.93651E-04   -0.29237E-03  3528   0.255E-02    0.143E-01
RMM:   3    -0.233182148785E+04   -0.95232E-04   -0.75533E-04  3866   0.150E-02    0.132E-01
RMM:   4    -0.233182135685E+04    0.13100E-03   -0.23194E-04  3321   0.735E-03    0.329E-02
RMM:   5    -0.233182134754E+04    0.93044E-05   -0.14219E-05  2549   0.300E-03
  16 F= -.23528198E+04 E0= -.23528198E+04  d E =-.600917E-06  mag=     6.0000
       N       E                     dE             d eps       ncg     rms          rms(c)
DAV:   1    -0.233182524557E+04   -0.38887E-02   -0.12570E+00  4400   0.503E-01    0.369E-01
RMM:   2    -0.233182470585E+04    0.53973E-03   -0.72586E-03  3687   0.398E-02    0.214E-01
RMM:   3    -0.233182472763E+04   -0.21784E-04   -0.27341E-03  4405   0.276E-02    0.142E-01
RMM:   4    -0.233182459211E+04    0.13552E-03   -0.54383E-04  3903   0.102E-02    0.743E-02
RMM:   5    -0.233182451786E+04    0.74249E-04   -0.12109E-04  3264   0.554E-03    0.234E-02
RMM:   6    -0.233182452703E+04   -0.91722E-05   -0.61032E-05  2868   0.422E-03
  17 F= -.23528230E+04 E0= -.23528230E+04  d E =-.650660E-06  mag=     6.0000
       N       E                     dE             d eps       ncg     rms          rms(c)
DAV:   1    -0.233181300760E+04    0.11510E-01   -0.67735E-01  4720   0.373E-01    0.405E-01
RMM:   2    -0.233181071994E+04    0.22877E-02   -0.10553E-02  3706   0.424E-02    0.216E-01
RMM:   3    -0.233181036324E+04    0.35671E-03   -0.45335E-03  4508   0.299E-02    0.961E-02
RMM:   4    -0.233181032682E+04    0.36413E-04   -0.44049E-04  3682   0.936E-03    0.115E-01
RMM:   5    -0.233181018476E+04    0.14206E-03   -0.31813E-04  3682   0.762E-03    0.240E-02
RMM:   6    -0.233181019412E+04   -0.93625E-05   -0.40075E-05  2659   0.448E-03
  18 F= -.23528086E+04 E0= -.23528086E+04  d E =-.640928E-06  mag=     6.0000
       N       E                     dE             d eps       ncg     rms          rms(c)
DAV:   1    -0.233182553088E+04   -0.15346E-01   -0.13400E+00  4800   0.524E-01    0.570E-01
RMM:   2    -0.233182096181E+04    0.45691E-02   -0.21014E-02  3791   0.660E-02    0.307E-01
RMM:   3    -0.233182026065E+04    0.70116E-03   -0.10184E-02  4552   0.469E-02    0.108E-01
RMM:   4    -0.233182018724E+04    0.73411E-04   -0.82333E-04  4452   0.129E-02    0.178E-01
RMM:   5    -0.233181987110E+04    0.31614E-03   -0.51493E-04  4120   0.994E-03    0.287E-02
RMM:   6    -0.233181987738E+04   -0.62781E-05   -0.49234E-05  2833   0.473E-03
  19 F= -.23528184E+04 E0= -.23528184E+04  d E =-.588456E-06  mag=     6.0000
       N       E                     dE             d eps       ncg     rms          rms(c)
DAV:   1    -0.233183168808E+04   -0.11817E-01   -0.64902E-01  4840   0.389E-01    0.325E-01
RMM:   2    -0.233183065760E+04    0.10305E-02   -0.78333E-03  3704   0.401E-02    0.182E-01
RMM:   3    -0.233183064300E+04    0.14605E-04   -0.32272E-03  4618   0.286E-02    0.142E-01
RMM:   4    -0.233183046960E+04    0.17340E-03   -0.47384E-04  3884   0.940E-03    0.684E-02
RMM:   5    -0.233183039927E+04    0.70331E-04   -0.40320E-04  3414   0.725E-03    0.233E-02
RMM:   6    -0.233183039843E+04    0.84052E-06   -0.34160E-05  2697   0.566E-03
  20 F= -.23528288E+04 E0= -.23528288E+04  d E =-.614264E-06  mag=     6.0000
       N       E                     dE             d eps       ncg     rms          rms(c)
DAV:   1    -0.233181757076E+04    0.12829E-01   -0.12573E+00  4520   0.476E-01    0.344E-01
RMM:   2    -0.233181764133E+04   -0.70570E-04   -0.62963E-03  3695   0.350E-02    0.206E-01
RMM:   3    -0.233181774581E+04   -0.10448E-03   -0.17901E-03  4112   0.241E-02    0.156E-01
RMM:   4    -0.233181754976E+04    0.19606E-03   -0.41276E-04  3405   0.907E-03    0.256E-02
RMM:   5    -0.233181753358E+04    0.16178E-04   -0.47844E-05  2912   0.406E-03    0.110E-02
RMM:   6    -0.233181753268E+04    0.89755E-06   -0.17984E-05  2673   0.244E-03
  21 F= -.23528161E+04 E0= -.23528161E+04  d E =-.625660E-06  mag=     6.0000
       N       E                     dE             d eps       ncg     rms          rms(c)
DAV:   1    -0.233180088856E+04    0.16645E-01   -0.65605E-01  5040   0.341E-01    0.358E-01
RMM:   2    -0.233179943325E+04    0.14553E-02   -0.79365E-03  3799   0.356E-02    0.208E-01
RMM:   3    -0.233179992700E+04   -0.49375E-03   -0.25639E-03  4303   0.270E-02    0.326E-01
RMM:   4    -0.233179909663E+04    0.83037E-03   -0.12075E-03  4310   0.145E-02    0.780E-02
RMM:   5    -0.233179907091E+04    0.25723E-04   -0.12499E-04  3099   0.566E-03    0.498E-02
RMM:   6    -0.233179906235E+04    0.85611E-05   -0.71369E-05  2661   0.414E-03
  22 F= -.23527970E+04 E0= -.23527970E+04  d E =-.621270E-06  mag=     6.0000
       N       E                     dE             d eps       ncg     rms          rms(c)
DAV:   1    -0.233183221886E+04   -0.33148E-01   -0.13382E+00  5120   0.497E-01    0.646E-01
RMM:   2    -0.233182549586E+04    0.67230E-02   -0.26759E-02  4018   0.660E-02    0.353E-01
RMM:   3    -0.233182628945E+04   -0.79360E-03   -0.80978E-03  4565   0.510E-02    0.526E-01
RMM:   4    -0.233182419950E+04    0.20899E-02   -0.36098E-03  4927   0.245E-02    0.145E-01
RMM:   5    -0.233182406398E+04    0.13553E-03   -0.46780E-04  3661   0.941E-03    0.928E-02
RMM:   6    -0.233182403509E+04    0.28887E-04   -0.25527E-04  3125   0.721E-03    0.758E-02
RMM:   7    -0.233182398637E+04    0.48725E-04   -0.43714E-05  2795   0.406E-03    0.148E-02
RMM:   8    -0.233182398480E+04    0.15706E-05   -0.91019E-06  2465   0.227E-03
  23 F= -.23528230E+04 E0= -.23528230E+04  d E =-.603803E-06  mag=     6.0000
       N       E                     dE             d eps       ncg     rms          rms(c)
DAV:   1    -0.233183035549E+04   -0.63691E-02   -0.62668E-01  4840   0.347E-01    0.323E-01
RMM:   2    -0.233182940044E+04    0.95505E-03   -0.58750E-03  3699   0.328E-02    0.189E-01
RMM:   3    -0.233182989568E+04   -0.49524E-03   -0.21990E-03  4152   0.263E-02    0.303E-01
RMM:   4    -0.233182916766E+04    0.72802E-03   -0.10424E-03  4190   0.134E-02    0.575E-02
RMM:   5    -0.233182915294E+04    0.14723E-04   -0.13330E-04  3091   0.565E-03    0.471E-02
RMM:   6    -0.233182914048E+04    0.12462E-04   -0.56113E-05  2651   0.374E-03    0.302E-02
RMM:   7    -0.233182913453E+04    0.59431E-05   -0.83786E-06  2444   0.224E-03
  24 F= -.23528278E+04 E0= -.23528278E+04  d E =-.680302E-06  mag=     6.0000
       N       E                     dE             d eps       ncg     rms          rms(c)
DAV:   1    -0.233182011053E+04    0.90299E-02   -0.12281E+00  4480   0.480E-01    0.347E-01
RMM:   2    -0.233182012673E+04   -0.16199E-04   -0.56381E-03  4161   0.342E-02    0.205E-01
RMM:   3    -0.233182008875E+04    0.37978E-04   -0.11386E-03  3793   0.207E-02    0.103E-01
RMM:   4    -0.233182014762E+04   -0.58870E-04   -0.50941E-04  3532   0.970E-03    0.108E-01
RMM:   5    -0.233182003982E+04    0.10779E-03   -0.78118E-05  2904   0.565E-03    0.176E-02
RMM:   6    -0.233182004021E+04   -0.38520E-06   -0.19310E-05  2623   0.253E-03
  25 F= -.23528183E+04 E0= -.23528183E+04  d E =-.580642E-06  mag=     6.0000
       N       E                     dE             d eps       ncg     rms          rms(c)
DAV:   1    -0.233181188524E+04    0.81546E-02   -0.62550E-01  5040   0.365E-01    0.303E-01
RMM:   2    -0.233181121633E+04    0.66891E-03   -0.68317E-03  3703   0.348E-02    0.174E-01
RMM:   3    -0.233181132114E+04   -0.10481E-03   -0.22158E-03  4437   0.247E-02    0.225E-01
RMM:   4    -0.233181094749E+04    0.37365E-03   -0.71231E-04  4072   0.113E-02    0.638E-02
RMM:   5    -0.233181089803E+04    0.49462E-04   -0.93492E-05  3054   0.499E-03    0.291E-02
RMM:   6    -0.233181090636E+04   -0.83311E-05   -0.60881E-05  2728   0.405E-03
  26 F= -.23528097E+04 E0= -.23528097E+04  d E =-.629534E-06  mag=     6.0000
       N       E                     dE             d eps       ncg     rms          rms(c)
DAV:   1    -0.233182881510E+04   -0.17917E-01   -0.12939E+00  5040   0.468E-01    0.515E-01
RMM:   2    -0.233182546782E+04    0.33473E-02   -0.17033E-02  3777   0.538E-02    0.275E-01
RMM:   3    -0.233182497615E+04    0.49166E-03   -0.69960E-03  4717   0.386E-02    0.163E-01
RMM:   4    -0.233182479632E+04    0.17983E-03   -0.76766E-04  4173   0.123E-02    0.122E-01
RMM:   5    -0.233182461186E+04    0.18446E-03   -0.50679E-04  3851   0.911E-03    0.352E-02
RMM:   6    -0.233182462424E+04   -0.12374E-04   -0.73103E-05  2891   0.578E-03    0.440E-02
RMM:   7    -0.233182460583E+04    0.18412E-04   -0.16301E-05  2422   0.274E-03    0.827E-03
RMM:   8    -0.233182460455E+04    0.12747E-05   -0.73040E-06  2213   0.160E-03
  27 F= -.23528227E+04 E0= -.23528227E+04  d E =-.619828E-06  mag=     6.0000
       N       E                     dE             d eps       ncg     rms          rms(c)
DAV:   1    -0.233182489884E+04   -0.29302E-03   -0.63931E-01  4840   0.343E-01    0.298E-01
RMM:   2    -0.233182418054E+04    0.71831E-03   -0.49272E-03  3639   0.306E-02    0.166E-01
RMM:   3    -0.233182407797E+04    0.10256E-03   -0.19518E-03  4121   0.221E-02    0.743E-02
RMM:   4    -0.233182407087E+04    0.71013E-05   -0.31989E-04  3443   0.739E-03    0.741E-02
RMM:   5    -0.233182400634E+04    0.64536E-04   -0.11145E-04  3214   0.523E-03    0.185E-02
RMM:   6    -0.233182401192E+04   -0.55857E-05   -0.29873E-05  2577   0.332E-03
  28 F= -.23528226E+04 E0= -.23528226E+04  d E =-.605544E-06  mag=     6.0000
       N       E                     dE             d eps       ncg     rms          rms(c)
DAV:   1    -0.233182383163E+04    0.17471E-03   -0.12399E+00  4560   0.468E-01    0.329E-01
RMM:   2    -0.233182386707E+04   -0.35440E-04   -0.53458E-03  3683   0.329E-02    0.195E-01
RMM:   3    -0.233182389963E+04   -0.32564E-04   -0.15212E-03  4256   0.204E-02    0.106E-01
RMM:   4    -0.233182380080E+04    0.98827E-04   -0.24545E-04  3436   0.769E-03    0.316E-02
RMM:   5    -0.233182378153E+04    0.19273E-04   -0.43448E-05  2966   0.366E-03    0.977E-03
RMM:   6    -0.233182378095E+04    0.57674E-06   -0.10085E-05  2517   0.250E-03
  29 F= -.23528221E+04 E0= -.23528221E+04  d E =-.645072E-06  mag=     6.0000
       N       E                     dE             d eps       ncg     rms          rms(c)
DAV:   1    -0.233181799585E+04    0.57857E-02   -0.61579E-01  4840   0.331E-01    0.261E-01
RMM:   2    -0.233181764099E+04    0.35486E-03   -0.35754E-03  3624   0.270E-02    0.149E-01
RMM:   3    -0.233181757787E+04    0.63122E-04   -0.13970E-03  3918   0.190E-02    0.432E-02
RMM:   4    -0.233181758149E+04   -0.36241E-05   -0.16926E-04  3327   0.620E-03    0.669E-02
RMM:   5    -0.233181753229E+04    0.49208E-04   -0.64339E-05  2981   0.413E-03    0.836E-03
RMM:   6    -0.233181753326E+04   -0.97549E-06   -0.13990E-05  2458   0.267E-03
  30 F= -.23528163E+04 E0= -.23528163E+04  d E =-.634958E-06  mag=     6.0000
       N       E                     dE             d eps       ncg     rms          rms(c)
DAV:   1    -0.233182389990E+04   -0.63676E-02   -0.12722E+00  5040   0.480E-01    0.473E-01
RMM:   2    -0.233182129832E+04    0.26016E-02   -0.11504E-02  3795   0.471E-02    0.257E-01
RMM:   3    -0.233182105709E+04    0.24123E-03   -0.61247E-03  4508   0.365E-02    0.135E-01
RMM:   4    -0.233182088653E+04    0.17056E-03   -0.74266E-04  4251   0.116E-02    0.980E-02
RMM:   5    -0.233182075306E+04    0.13347E-03   -0.73208E-04  3836   0.978E-03    0.349E-02
RMM:   6    -0.233182074869E+04    0.43757E-05   -0.64819E-05  2744   0.693E-03
  31 F= -.23528188E+04 E0= -.23528188E+04  d E =-.597903E-06  mag=     6.0000
       N       E                     dE             d eps       ncg     rms          rms(c)
DAV:   1    -0.233182160604E+04   -0.85297E-03   -0.62831E-01  4920   0.372E-01    0.286E-01
RMM:   2    -0.233182132076E+04    0.28528E-03   -0.45133E-03  3671   0.311E-02    0.167E-01
RMM:   3    -0.233182119661E+04    0.12415E-03   -0.12478E-03  4067   0.204E-02    0.367E-02
RMM:   4    -0.233182121404E+04   -0.17434E-04   -0.18946E-04  3089   0.612E-03    0.671E-02
RMM:   5    -0.233182116793E+04    0.46116E-04   -0.46957E-05  2779   0.404E-03    0.978E-03
RMM:   6    -0.233182116872E+04   -0.79277E-06   -0.20870E-05  2538   0.241E-03
  32 F= -.23528196E+04 E0= -.23528196E+04  d E =-.620098E-06  mag=     6.0000
       N       E                     dE             d eps       ncg     rms          rms(c)
DAV:   1    -0.233182609662E+04   -0.49287E-02   -0.12598E+00  4480   0.462E-01    0.340E-01
RMM:   2    -0.233182608191E+04    0.14709E-04   -0.58431E-03  3706   0.333E-02    0.203E-01
RMM:   3    -0.233182624298E+04   -0.16108E-03   -0.18238E-03  4114   0.234E-02    0.158E-01
RMM:   4    -0.233182601741E+04    0.22557E-03   -0.39499E-04  3559   0.100E-02    0.301E-02
RMM:   5    -0.233182599662E+04    0.20789E-04   -0.73802E-05  3010   0.463E-03    0.136E-02
RMM:   6    -0.233182599761E+04   -0.98457E-06   -0.17458E-05  2543   0.290E-03
  33 F= -.23528245E+04 E0= -.23528245E+04  d E =-.623215E-06  mag=     6.0000
       N       E                     dE             d eps       ncg     rms          rms(c)
DAV:   1    -0.233181305954E+04    0.12937E-01   -0.62671E-01  4880   0.336E-01    0.304E-01
RMM:   2    -0.233181221032E+04    0.84922E-03   -0.57249E-03  3669   0.330E-02    0.169E-01
RMM:   3    -0.233181218827E+04    0.22055E-04   -0.22512E-03  4223   0.245E-02    0.144E-01
RMM:   4    -0.233181204047E+04    0.14780E-03   -0.47918E-04  3847   0.935E-03    0.573E-02
RMM:   5    -0.233181199096E+04    0.49507E-04   -0.22161E-04  3276   0.597E-03    0.269E-02
RMM:   6    -0.233181199297E+04   -0.20114E-05   -0.39960E-05  2569   0.447E-03
  34 F= -.23528108E+04 E0= -.23528108E+04  d E =-.626045E-06  mag=     6.0000
       N       E                     dE             d eps       ncg     rms          rms(c)
DAV:   1    -0.233181956676E+04   -0.75758E-02   -0.13311E+00  5160   0.506E-01    0.605E-01
RMM:   2    -0.233181431426E+04    0.52525E-02   -0.24383E-02  3806   0.631E-02    0.322E-01
RMM:   3    -0.233181326330E+04    0.10510E-02   -0.10315E-02  4530   0.493E-02    0.133E-01
RMM:   4    -0.233181323277E+04    0.30531E-04   -0.11670E-03  4437   0.140E-02    0.163E-01
RMM:   5    -0.233181292209E+04    0.31068E-03   -0.87051E-04  4119   0.116E-02    0.323E-02
RMM:   6    -0.233181291686E+04    0.52308E-05   -0.48533E-05  2818   0.588E-03
  35 F= -.23528110E+04 E0= -.23528110E+04  d E =-.620156E-06  mag=     6.0000
       N       E                     dE             d eps       ncg     rms          rms(c)
DAV:   1    -0.233182880376E+04   -0.15882E-01   -0.65094E-01  4920   0.337E-01    0.339E-01
RMM:   2    -0.233182765563E+04    0.11481E-02   -0.71820E-03  3714   0.335E-02    0.186E-01
RMM:   3    -0.233182742212E+04    0.23352E-03   -0.26147E-03  4407   0.252E-02    0.841E-02
RMM:   4    -0.233182741011E+04    0.12007E-04   -0.40765E-04  3550   0.836E-03    0.865E-02
RMM:   5    -0.233182732001E+04    0.90101E-04   -0.22211E-04  3385   0.644E-03    0.177E-02
RMM:   6    -0.233182732163E+04   -0.16184E-05   -0.21391E-05  2522   0.389E-03
  36 F= -.23528261E+04 E0= -.23528261E+04  d E =-.599977E-06  mag=     6.0000
       N       E                     dE             d eps       ncg     rms          rms(c)
DAV:   1    -0.233182062161E+04    0.66984E-02   -0.12414E+00  4560   0.463E-01    0.334E-01
RMM:   2    -0.233182074211E+04   -0.12050E-03   -0.59307E-03  3715   0.341E-02    0.199E-01
RMM:   3    -0.233182076637E+04   -0.24254E-04   -0.16500E-03  4206   0.233E-02    0.112E-01
RMM:   4    -0.233182067411E+04    0.92254E-04   -0.27800E-04  3515   0.799E-03    0.351E-02
RMM:   5    -0.233182065571E+04    0.18401E-04   -0.42522E-05  2989   0.423E-03    0.171E-02
RMM:   6    -0.233182065672E+04   -0.10107E-05   -0.19050E-05  2520   0.276E-03
  37 F= -.23528188E+04 E0= -.23528188E+04  d E =-.636376E-06  mag=     6.0000
       N       E                     dE             d eps       ncg     rms          rms(c)
DAV:   1    -0.233182356508E+04   -0.29094E-02   -0.63504E-01  4920   0.357E-01    0.294E-01
RMM:   2    -0.233182295995E+04    0.60513E-03   -0.55917E-03  3704   0.331E-02    0.173E-01
RMM:   3    -0.233182320258E+04   -0.24263E-03   -0.16781E-03  4171   0.234E-02    0.243E-01
RMM:   4    -0.233182276053E+04    0.44206E-03   -0.72052E-04  3895   0.112E-02    0.586E-02
RMM:   5    -0.233182274803E+04    0.12496E-04   -0.80095E-05  2958   0.480E-03    0.390E-02
RMM:   6    -0.233182274133E+04    0.66950E-05   -0.43210E-05  2547   0.341E-03
  38 F= -.23528207E+04 E0= -.23528207E+04  d E =-.587572E-06  mag=     6.0000
       N       E                     dE             d eps       ncg     rms          rms(c)
DAV:   1    -0.233181897470E+04    0.37733E-02   -0.12772E+00  4880   0.448E-01    0.488E-01
RMM:   2    -0.233181603833E+04    0.29364E-02   -0.14327E-02  3747   0.456E-02    0.272E-01
RMM:   3    -0.233181647015E+04   -0.43182E-03   -0.41991E-03  4624   0.343E-02    0.382E-01
RMM:   4    -0.233181539073E+04    0.10794E-02   -0.18757E-03  4397   0.170E-02    0.107E-01
RMM:   5    -0.233181534159E+04    0.49131E-04   -0.22674E-04  3325   0.703E-03    0.654E-02
RMM:   6    -0.233181532985E+04    0.11750E-04   -0.13395E-04  2818   0.524E-03    0.545E-02
RMM:   7    -0.233181530424E+04    0.25605E-04   -0.24620E-05  2601   0.316E-03    0.103E-02
RMM:   8    -0.233181530325E+04    0.98886E-06   -0.57703E-06  2330   0.191E-03
  39 F= -.23528143E+04 E0= -.23528143E+04  d E =-.639569E-06  mag=     6.0000
       N       E                     dE             d eps       ncg     rms          rms(c)
DAV:   1    -0.233182822742E+04   -0.12923E-01   -0.62506E-01  4440   0.288E-01    0.272E-01
RMM:   2    -0.233182771766E+04    0.50977E-03   -0.37979E-03  3500   0.253E-02    0.156E-01
RMM:   3    -0.233182786546E+04   -0.14780E-03   -0.11732E-03  3896   0.185E-02    0.189E-01
RMM:   4    -0.233182761749E+04    0.24797E-03   -0.53168E-04  3528   0.937E-03    0.569E-02
RMM:   5    -0.233182760005E+04    0.17444E-04   -0.53858E-05  2796   0.440E-03    0.292E-02
RMM:   6    -0.233182759778E+04    0.22628E-05   -0.28472E-05  2428   0.279E-03
  40 F= -.23528260E+04 E0= -.23528260E+04  d E =-.639094E-06  mag=     6.0000
       N       E                     dE             d eps       ncg     rms          rms(c)
DAV:   1    -0.233182030727E+04    0.72928E-02   -0.12406E+00  4360   0.420E-01    0.324E-01
RMM:   2    -0.233182042081E+04   -0.11355E-03   -0.46895E-03  3524   0.286E-02    0.196E-01
RMM:   3    -0.233182077098E+04   -0.35017E-03   -0.15861E-03  4424   0.193E-02    0.225E-01
RMM:   4    -0.233182034347E+04    0.42752E-03   -0.46292E-04  3422   0.867E-03    0.197E-02
RMM:   5    -0.233182034057E+04    0.28968E-05   -0.66503E-05  2732   0.363E-03
  41 F= -.23528189E+04 E0= -.23528189E+04  d E =-.603540E-06  mag=     6.0000
       N       E                     dE             d eps       ncg     rms          rms(c)
DAV:   1    -0.233182170802E+04   -0.13645E-02   -0.63352E-01  4520   0.309E-01    0.304E-01
RMM:   2    -0.233182093821E+04    0.76981E-03   -0.47006E-03  3835   0.271E-02    0.169E-01
RMM:   3    -0.233182090142E+04    0.36790E-04   -0.12285E-03  3834   0.190E-02    0.139E-01
RMM:   4    -0.233182080536E+04    0.96061E-04   -0.47335E-04  3682   0.907E-03    0.911E-02
RMM:   5    -0.233182073387E+04    0.71486E-04   -0.67652E-05  2903   0.493E-03    0.186E-02
RMM:   6    -0.233182073791E+04   -0.40372E-05   -0.24663E-05  2459   0.281E-03
  42 F= -.23528189E+04 E0= -.23528189E+04  d E =-.600148E-06  mag=     6.0000
       N       E                     dE             d eps       ncg     rms          rms(c)
DAV:   1    -0.233181992138E+04    0.81249E-03   -0.12839E+00  4880   0.451E-01    0.533E-01
RMM:   2    -0.233181606102E+04    0.38604E-02   -0.16670E-02  3800   0.478E-02    0.286E-01
RMM:   3    -0.233181622674E+04   -0.16572E-03   -0.46216E-03  4518   0.374E-02    0.364E-01
RMM:   4    -0.233181531458E+04    0.91215E-03   -0.20494E-03  4538   0.177E-02    0.135E-01
RMM:   5    -0.233181516093E+04    0.15365E-03   -0.24683E-04  3421   0.786E-03    0.522E-02
RMM:   6    -0.233181518219E+04   -0.21262E-04   -0.13267E-04  2881   0.558E-03    0.665E-02
RMM:   7    -0.233181514293E+04    0.39259E-04   -0.35650E-05  2629   0.355E-03    0.102E-02
RMM:   8    -0.233181514228E+04    0.65213E-06   -0.61836E-06  2274   0.183E-03
  43 F= -.23528139E+04 E0= -.23528139E+04  d E =-.640108E-06  mag=     6.0000
       N       E                     dE             d eps       ncg     rms          rms(c)
DAV:   1    -0.233181463616E+04    0.50678E-03   -0.59195E-01  4280   0.362E-01    0.328E-01
RMM:   2    -0.233181493264E+04   -0.29648E-03   -0.85117E-03  4102   0.430E-02    0.404E-01
RMM:   3    -0.233181394231E+04    0.99033E-03   -0.26091E-03  4351   0.258E-02    0.230E-01
RMM:   4    -0.233181352362E+04    0.41868E-03   -0.11122E-03  4326   0.133E-02    0.844E-02
RMM:   5    -0.233181351900E+04    0.46168E-05   -0.26848E-04  3026   0.917E-03    0.899E-02
RMM:   6    -0.233181344355E+04    0.75457E-04   -0.67879E-05  2877   0.411E-03    0.167E-02
RMM:   7    -0.233181344284E+04    0.70856E-06   -0.20980E-05  2672   0.287E-03
  44 F= -.23528116E+04 E0= -.23528116E+04  d E =-.985193E-06  mag=     6.0000
       N       E                     dE             d eps       ncg     rms          rms(c)
DAV:   1    -0.233183863057E+04   -0.25187E-01   -0.10784E+00  4240   0.516E-01    0.425E-01
RMM:   2    -0.233184221979E+04   -0.35892E-02   -0.19059E-02  4828   0.600E-02    0.703E-01
RMM:   3    -0.233183831846E+04    0.39013E-02   -0.51540E-03  4957   0.323E-02    0.245E-01
RMM:   4    -0.233183781692E+04    0.50154E-03   -0.93307E-04  4582   0.124E-02    0.112E-01
RMM:   5    -0.233183787318E+04   -0.56264E-04   -0.53118E-04  3290   0.962E-03    0.135E-01
RMM:   6    -0.233183772338E+04    0.14980E-03   -0.12052E-04  3103   0.552E-03    0.344E-02
RMM:   7    -0.233183771359E+04    0.97923E-05   -0.31361E-05  2778   0.287E-03
  45 F= -.23528365E+04 E0= -.23528365E+04  d E =-.344422E-06  mag=     6.0000
       N       E                     dE             d eps       ncg     rms          rms(c)
DAV:   1    -0.233182508009E+04    0.12643E-01   -0.53828E-01  4240   0.357E-01    0.239E-01
RMM:   2    -0.233182588400E+04   -0.80391E-03   -0.52516E-03  4118   0.317E-02    0.331E-01
RMM:   3    -0.233182513873E+04    0.74527E-03   -0.15089E-03  4059   0.179E-02    0.161E-01
RMM:   4    -0.233182492142E+04    0.21731E-03   -0.40771E-04  4026   0.836E-03    0.719E-02
RMM:   5    -0.233182494257E+04   -0.21148E-04   -0.17400E-04  2894   0.551E-03    0.822E-02
RMM:   6    -0.233182488774E+04    0.54828E-04   -0.50077E-05  2668   0.353E-03    0.184E-02
RMM:   7    -0.233182488524E+04    0.24985E-05   -0.10877E-05  2429   0.177E-03
  46 F= -.23528236E+04 E0= -.23528236E+04  d E =-.127914E-05  mag=     6.0000
       N       E                     dE             d eps       ncg     rms          rms(c)
DAV:   1    -0.233182612828E+04   -0.12405E-02   -0.10626E+00  4400   0.502E-01    0.216E-01
RMM:   2    -0.233182646137E+04   -0.33309E-03   -0.51406E-03  3824   0.341E-02    0.137E-01
RMM:   3    -0.233182651674E+04   -0.55368E-04   -0.92153E-04  3541   0.185E-02    0.181E-01
RMM:   4    -0.233182626658E+04    0.25016E-03   -0.47647E-04  3494   0.884E-03    0.619E-02
RMM:   5    -0.233182627047E+04   -0.38973E-05   -0.80685E-05  2974   0.503E-03
  47 F= -.23528245E+04 E0= -.23528245E+04  d E =-.312485E-06  mag=     6.0000
       N       E                     dE             d eps       ncg     rms          rms(c)
DAV:   1    -0.233181074091E+04    0.15526E-01   -0.54576E-01  4240   0.358E-01    0.235E-01
RMM:   2    -0.233181112205E+04   -0.38113E-03   -0.56528E-03  4276   0.335E-02    0.226E-01
RMM:   3    -0.233181095631E+04    0.16574E-03   -0.13117E-03  3679   0.189E-02    0.189E-01
RMM:   4    -0.233181064000E+04    0.31632E-03   -0.57592E-04  4297   0.986E-03    0.836E-02
RMM:   5    -0.233181064770E+04   -0.77070E-05   -0.16027E-04  3034   0.620E-03    0.753E-02
RMM:   6    -0.233181060017E+04    0.47529E-04   -0.60312E-05  2789   0.398E-03    0.264E-02
RMM:   7    -0.233181059479E+04    0.53801E-05   -0.11152E-05  2584   0.215E-03
  48 F= -.23528092E+04 E0= -.23528092E+04  d E =-.592715E-06  mag=     6.0000
       N       E                     dE             d eps       ncg     rms          rms(c)
DAV:   1    -0.233183435074E+04   -0.23751E-01   -0.11023E+00  4240   0.523E-01    0.392E-01
RMM:   2    -0.233183656539E+04   -0.22147E-02   -0.15792E-02  4577   0.570E-02    0.550E-01
RMM:   3    -0.233183453503E+04    0.20304E-02   -0.43467E-03  4458   0.331E-02    0.268E-01
RMM:   4    -0.233183391615E+04    0.61888E-03   -0.12588E-03  4788   0.143E-02    0.128E-01
RMM:   5    -0.233183397721E+04   -0.61061E-04   -0.45780E-04  3256   0.924E-03    0.138E-01
RMM:   6    -0.233183381814E+04    0.15907E-03   -0.16172E-04  3110   0.612E-03    0.435E-02
RMM:   7    -0.233183380165E+04    0.16494E-04   -0.35972E-05  2891   0.327E-03    0.165E-02
RMM:   8    -0.233183380105E+04    0.59475E-06   -0.78429E-06  2730   0.239E-03
  49 F= -.23528321E+04 E0= -.23528321E+04  d E =-.618371E-06  mag=     6.0000
