       N       E                     dE             d eps       ncg     rms          rms(c)
DAV:   1     0.124584708296E+05    0.12458E+05   -0.81708E+05  4392   0.143E+03
DAV:   2    -0.108143679507E+04   -0.13540E+05   -0.12995E+05  5328   0.329E+02
DAV:   3    -0.246076212803E+04   -0.13793E+04   -0.13684E+04  5248   0.109E+02
DAV:   4    -0.249835193180E+04   -0.37590E+02   -0.37416E+02  6192   0.251E+01
DAV:   5    -0.249916614463E+04   -0.81421E+00   -0.81326E+00  5536   0.300E+00    0.170E+02
RMM:   6    -0.145897906118E+04    0.10402E+04   -0.19173E+03  4326   0.389E+01    0.724E+01
RMM:   7    -0.162688554473E+04   -0.16791E+03   -0.26971E+02  4833   0.138E+01    0.491E+01
RMM:   8    -0.167999499210E+04   -0.53109E+02   -0.40607E+01  4816   0.725E+00    0.356E+01
RMM:   9    -0.182579877896E+04   -0.14580E+03   -0.70421E+01  4448   0.861E+00    0.235E+01
RMM:  10    -0.195899570948E+04   -0.13320E+03   -0.53069E+01  4478   0.708E+00    0.163E+01
RMM:  11    -0.207185564920E+04   -0.11286E+03   -0.57148E+01  4398   0.575E+00    0.128E+01
RMM:  12    -0.225146814943E+04   -0.17961E+03   -0.19106E+02  4320   0.914E+00    0.615E+00
RMM:  13    -0.228181845574E+04   -0.30350E+02   -0.35244E+01  4449   0.463E+00    0.381E+00
RMM:  14    -0.228912820667E+04   -0.73098E+01   -0.94476E+00  4535   0.253E+00    0.194E+00
RMM:  15    -0.229132649345E+04   -0.21983E+01   -0.20454E+00  4831   0.128E+00    0.127E+00
RMM:  16    -0.229165571091E+04   -0.32922E+00   -0.32474E-01  4645   0.504E-01    0.482E-01
RMM:  17    -0.229188299770E+04   -0.22729E+00   -0.75528E-02  4672   0.292E-01    0.323E-01
RMM:  18    -0.229193064806E+04   -0.47650E-01   -0.28931E-02  4428   0.141E-01    0.175E-01
RMM:  19    -0.229195434607E+04   -0.23698E-01   -0.15184E-02  4539   0.112E-01    0.125E-01
RMM:  20    -0.229196752921E+04   -0.13183E-01   -0.58815E-03  4394   0.769E-02    0.690E-02
RMM:  21    -0.229197479527E+04   -0.72661E-02   -0.29898E-03  4444   0.485E-02    0.497E-02
RMM:  22    -0.229198088519E+04   -0.60899E-02   -0.25142E-03  4426   0.403E-02    0.195E-02
RMM:  23    -0.229198202388E+04   -0.11387E-02   -0.55232E-04  4119   0.255E-02    0.134E-02
RMM:  24    -0.229198257276E+04   -0.54888E-03   -0.21775E-04  3737   0.114E-02    0.687E-03
RMM:  25    -0.229198287089E+04   -0.29813E-03   -0.88558E-05  3542   0.102E-02    0.467E-03
RMM:  26    -0.229198297230E+04   -0.10141E-03   -0.34068E-05  3239   0.517E-03    0.306E-03
RMM:  27    -0.229198303076E+04   -0.58461E-04   -0.17661E-05  2955   0.437E-03    0.156E-03
RMM:  28    -0.229198304096E+04   -0.10195E-04   -0.85316E-06  2789   0.315E-03    0.785E-04
RMM:  29    -0.229198304148E+04   -0.52062E-06   -0.28630E-06  2359   0.223E-03
   1 F= -.23118514E+04 E0= -.23118514E+04  d E =-.231185E+04  mag=     1.0000
