       N       E                     dE             d eps       ncg     rms          rms(c)
DAV:   1     0.120397182081E+05    0.12040E+05   -0.82810E+05  4640   0.140E+03
DAV:   2    -0.129327094954E+04   -0.13333E+05   -0.12830E+05  5040   0.317E+02
DAV:   3    -0.248395305626E+04   -0.11907E+04   -0.11812E+04  5440   0.101E+02
DAV:   4    -0.250885650826E+04   -0.24903E+02   -0.24772E+02  5680   0.175E+01
DAV:   5    -0.250952706361E+04   -0.67056E+00   -0.66945E+00  5760   0.252E+00    0.170E+02
RMM:   6    -0.147374940397E+04    0.10358E+04   -0.18741E+03  4493   0.373E+01    0.724E+01
RMM:   7    -0.163803183979E+04   -0.16428E+03   -0.27068E+02  5025   0.135E+01    0.520E+01
RMM:   8    -0.169923326133E+04   -0.61201E+02   -0.76918E+01  5240   0.755E+00    0.431E+01
RMM:   9    -0.176921855341E+04   -0.69985E+02   -0.65580E+01  4990   0.751E+00    0.317E+01
RMM:  10    -0.191015819557E+04   -0.14094E+03   -0.63323E+01  5189   0.749E+00    0.190E+01
RMM:  11    -0.204359361571E+04   -0.13344E+03   -0.66349E+01  4902   0.641E+00    0.165E+01
RMM:  12    -0.211541666013E+04   -0.71823E+02   -0.33698E+01  4926   0.451E+00    0.122E+01
RMM:  13    -0.222398016830E+04   -0.10856E+03   -0.78834E+01  4547   0.644E+00    0.961E+00
RMM:  14    -0.228469003033E+04   -0.60710E+02   -0.55381E+01  4580   0.516E+00    0.444E+00
RMM:  15    -0.229774883937E+04   -0.13059E+02   -0.15223E+01  5007   0.317E+00    0.358E+00
RMM:  16    -0.229950357237E+04   -0.17547E+01   -0.32288E+00  5705   0.101E+00    0.388E+00
RMM:  17    -0.229925855514E+04    0.24502E+00   -0.17104E-01  5686   0.280E-01    0.395E+00
RMM:  18    -0.229991757823E+04   -0.65902E+00   -0.48545E-01  4589   0.278E-01    0.435E+00
RMM:  19    -0.229994010329E+04   -0.22525E-01   -0.37460E-02  4949   0.997E-02    0.445E+00
RMM:  20    -0.230081280994E+04   -0.87271E+00   -0.28061E-01  4515   0.307E-01    0.374E+00
RMM:  21    -0.230274007162E+04   -0.19273E+01   -0.15113E+00  4555   0.690E-01    0.268E+00
RMM:  22    -0.230384533806E+04   -0.11053E+01   -0.11044E+00  4898   0.522E-01    0.236E+00
RMM:  23    -0.230398149806E+04   -0.13616E+00   -0.17857E-01  5024   0.261E-01    0.246E+00
RMM:  24    -0.230397058674E+04    0.10911E-01   -0.24717E-01  4740   0.260E-01    0.248E+00
RMM:  25    -0.230379272549E+04    0.17786E+00   -0.15215E-01  4936   0.171E-01    0.214E+00
RMM:  26    -0.230358612097E+04    0.20660E+00   -0.13361E-01  4567   0.140E-01    0.200E+00
RMM:  27    -0.230327082383E+04    0.31530E+00   -0.14779E-01  4600   0.143E-01    0.203E+00
RMM:  28    -0.230292599801E+04    0.34483E+00   -0.13633E-01  4704   0.132E-01    0.221E+00
RMM:  29    -0.230290957965E+04    0.16418E-01   -0.90931E-03  4519   0.372E-02    0.223E+00
RMM:  30    -0.230295336197E+04   -0.43782E-01   -0.19409E-03  3633   0.146E-02    0.222E+00
RMM:  31    -0.230303787247E+04   -0.84511E-01   -0.62230E-03  3829   0.259E-02    0.222E+00
RMM:  32    -0.230329636519E+04   -0.25849E+00   -0.59364E-02  4512   0.772E-02    0.219E+00
RMM:  33    -0.230367531535E+04   -0.37895E+00   -0.20304E-01  4866   0.147E-01    0.205E+00
RMM:  34    -0.230380678108E+04   -0.13147E+00   -0.65253E-02  4881   0.903E-02    0.206E+00
RMM:  35    -0.230376609447E+04    0.40687E-01   -0.64476E-03  4627   0.299E-02    0.210E+00
RMM:  36    -0.230342190041E+04    0.34419E+00   -0.17014E-01  4861   0.139E-01    0.224E+00
RMM:  37    -0.230341560300E+04    0.62974E-02   -0.58416E-03  4325   0.317E-02    0.229E+00
RMM:  38    -0.230327256985E+04    0.14303E+00   -0.21945E-02  4615   0.488E-02    0.234E+00
RMM:  39    -0.230350789368E+04   -0.23532E+00   -0.45381E-02  4616   0.686E-02    0.225E+00
RMM:  40    -0.230397874559E+04   -0.47085E+00   -0.50246E-01  4853   0.205E-01    0.211E+00
RMM:  41    -0.230420430928E+04   -0.22556E+00   -0.46779E-01  4892   0.173E-01    0.254E+00
RMM:  42    -0.230417901368E+04    0.25296E-01   -0.25409E-02  4439   0.626E-02    0.266E+00
RMM:  43    -0.230410998978E+04    0.69024E-01   -0.45200E-02  4204   0.582E-02    0.234E+00
RMM:  44    -0.230411726910E+04   -0.72793E-02   -0.94305E-03  4806   0.380E-02    0.218E+00
RMM:  45    -0.230411756228E+04   -0.29318E-03   -0.79818E-04  3492   0.136E-02    0.218E+00
RMM:  46    -0.230412560622E+04   -0.80439E-02   -0.54630E-04  3350   0.767E-03    0.220E+00
RMM:  47    -0.230412373811E+04    0.18681E-02   -0.37827E-04  3796   0.895E-03    0.215E+00
RMM:  48    -0.230411997474E+04    0.37634E-02   -0.21668E-04  3115   0.605E-03    0.214E+00
RMM:  49    -0.230411560128E+04    0.43735E-02   -0.36983E-03  4811   0.244E-02    0.217E+00
RMM:  50    -0.230413849354E+04   -0.22892E-01   -0.76090E-03  4650   0.325E-02    0.218E+00
RMM:  51    -0.230410395620E+04    0.34537E-01   -0.10289E-02  4516   0.331E-02    0.211E+00
RMM:  52    -0.230406240817E+04    0.41548E-01   -0.15562E-02  4731   0.449E-02    0.200E+00
RMM:  53    -0.230399321629E+04    0.69192E-01   -0.26805E-02  4733   0.612E-02    0.187E+00
RMM:  54    -0.230394065218E+04    0.52564E-01   -0.21087E-02  4700   0.571E-02    0.182E+00
RMM:  55    -0.230393354169E+04    0.71105E-02   -0.51621E-03  4540   0.278E-02    0.184E+00
RMM:  56    -0.230392663313E+04    0.69086E-02   -0.87959E-04  3721   0.121E-02    0.180E+00
RMM:  57    -0.230391286036E+04    0.13773E-01   -0.63559E-04  3412   0.116E-02    0.180E+00
RMM:  58    -0.230392040644E+04   -0.75461E-02   -0.87378E-04  3478   0.123E-02    0.181E+00
RMM:  59    -0.230389338015E+04    0.27026E-01   -0.79988E-03  4489   0.372E-02    0.186E+00
RMM:  60    -0.230392011008E+04   -0.26730E-01   -0.51586E-03  4235   0.307E-02    0.192E+00
RMM:  61    -0.230411948545E+04   -0.19938E+00   -0.20277E-01  5029   0.142E-01    0.191E+00
RMM:  62    -0.230412070568E+04   -0.12202E-02   -0.99100E-03  4623   0.488E-02    0.203E+00
RMM:  63    -0.230412277940E+04   -0.20737E-02   -0.24708E-03  4228   0.136E-02    0.204E+00
RMM:  64    -0.230413123750E+04   -0.84581E-02   -0.63406E-04  3390   0.103E-02    0.202E+00
RMM:  65    -0.230413486459E+04   -0.36271E-02   -0.27206E-04  3118   0.593E-03    0.203E+00
RMM:  66    -0.230414536318E+04   -0.10499E-01   -0.11419E-03  3516   0.120E-02    0.201E+00
RMM:  67    -0.230412754784E+04    0.17815E-01   -0.30003E-03  3999   0.198E-02    0.201E+00
RMM:  68    -0.230411578430E+04    0.11764E-01   -0.44800E-03  4453   0.291E-02    0.209E+00
RMM:  69    -0.230409369870E+04    0.22086E-01   -0.11543E-02  4784   0.454E-02    0.225E+00
RMM:  70    -0.230406655720E+04    0.27141E-01   -0.16097E-02  4957   0.539E-02    0.247E+00
RMM:  71    -0.230408893135E+04   -0.22374E-01   -0.43520E-02  4961   0.806E-02    0.278E+00
RMM:  72    -0.230408850444E+04    0.42691E-03   -0.38685E-03  4344   0.258E-02    0.280E+00
RMM:  73    -0.230408559790E+04    0.29065E-02   -0.45919E-04  3613   0.713E-03    0.282E+00
RMM:  74    -0.230408553141E+04    0.66483E-04   -0.36414E-05  2957   0.401E-03    0.282E+00
RMM:  75    -0.230408521499E+04    0.31642E-03   -0.15658E-05  2833   0.226E-03    0.282E+00
RMM:  76    -0.230402821676E+04    0.56998E-01   -0.22269E-02  4635   0.552E-02    0.297E+00
RMM:  77    -0.230403042148E+04   -0.22047E-02   -0.80473E-04  3472   0.158E-02    0.299E+00
RMM:  78    -0.230401713330E+04    0.13288E-01   -0.19361E-03  3884   0.155E-02    0.300E+00
RMM:  79    -0.230401853864E+04   -0.14053E-02   -0.25028E-03  4473   0.220E-02    0.310E+00
RMM:  80    -0.230399555072E+04    0.22988E-01   -0.30265E-03  4755   0.250E-02    0.321E+00
RMM:  81    -0.230396345156E+04    0.32099E-01   -0.20441E-02  4786   0.618E-02    0.370E+00
RMM:  82    -0.230399793777E+04   -0.34486E-01   -0.91685E-03  4211   0.405E-02    0.357E+00
RMM:  83    -0.230401528402E+04   -0.17346E-01   -0.26578E-03  4250   0.242E-02    0.340E+00
RMM:  84    -0.230403150747E+04   -0.16223E-01   -0.26158E-03  4143   0.223E-02    0.325E+00
RMM:  85    -0.230404773602E+04   -0.16229E-01   -0.24697E-03  4070   0.192E-02    0.321E+00
RMM:  86    -0.230425993516E+04   -0.21220E+00   -0.61990E-01  4960   0.306E-01    0.914E-01
RMM:  87    -0.230426690359E+04   -0.69684E-02   -0.66351E-02  5038   0.106E-01    0.866E-01
RMM:  88    -0.230426597419E+04    0.92941E-03   -0.39583E-03  4874   0.203E-02    0.882E-01
RMM:  89    -0.230426502297E+04    0.95122E-03   -0.51322E-04  3859   0.138E-02    0.900E-01
RMM:  90    -0.230426803919E+04   -0.30162E-02   -0.19984E-03  4426   0.172E-02    0.866E-01
RMM:  91    -0.230427371695E+04   -0.56778E-02   -0.92693E-02  5125   0.113E-01    0.171E+00
RMM:  92    -0.230427393760E+04   -0.22064E-03   -0.64605E-03  4589   0.386E-02    0.170E+00
RMM:  93    -0.230427460281E+04   -0.66521E-03   -0.86340E-04  3669   0.787E-03    0.169E+00
RMM:  94    -0.230427452982E+04    0.72989E-04   -0.73791E-05  3034   0.601E-03    0.170E+00
RMM:  95    -0.230427412146E+04    0.40835E-03   -0.38976E-05  2988   0.370E-03    0.170E+00
RMM:  96    -0.230426652692E+04    0.75945E-02   -0.20330E-02  5148   0.609E-02    0.140E+00
RMM:  97    -0.230426335111E+04    0.31758E-02   -0.34858E-03  4683   0.295E-02    0.164E+00
RMM:  98    -0.230426243847E+04    0.91264E-03   -0.28736E-03  4498   0.223E-02    0.183E+00
RMM:  99    -0.230426665899E+04   -0.42205E-02   -0.14915E-03  4619   0.166E-02    0.169E+00
RMM: 100    -0.230426589324E+04    0.76575E-03   -0.68635E-04  4154   0.138E-02    0.177E+00
RMM: 101    -0.230427561752E+04   -0.97243E-02   -0.19931E-02  4796   0.532E-02    0.924E-01
RMM: 102    -0.230427794103E+04   -0.23235E-02   -0.12647E-02  4883   0.465E-02    0.480E-01
RMM: 103    -0.230427920809E+04   -0.12671E-02   -0.64575E-03  5371   0.305E-02    0.313E-01
RMM: 104    -0.230428002023E+04   -0.81215E-03   -0.52383E-03  4962   0.303E-02    0.219E-01
RMM: 105    -0.230427897869E+04    0.10415E-02   -0.57816E-03  4870   0.305E-02    0.389E-01
RMM: 106    -0.230427956208E+04   -0.58339E-03   -0.17473E-03  4694   0.187E-02    0.426E-01
RMM: 107    -0.230427951140E+04    0.50679E-04   -0.79575E-04  4232   0.140E-02    0.313E-01
RMM: 108    -0.230427980141E+04   -0.29000E-03   -0.87017E-04  4181   0.129E-02    0.234E-01
RMM: 109    -0.230427994748E+04   -0.14607E-03   -0.57690E-04  3809   0.111E-02    0.204E-01
RMM: 110    -0.230428011590E+04   -0.16842E-03   -0.75542E-04  4133   0.128E-02    0.161E-01
RMM: 111    -0.230428066598E+04   -0.55008E-03   -0.12796E-03  4275   0.144E-02    0.142E-01
RMM: 112    -0.230428080486E+04   -0.13888E-03   -0.59774E-04  3719   0.955E-03    0.177E-01
RMM: 113    -0.230428078131E+04    0.23551E-04   -0.10566E-04  3028   0.527E-03    0.184E-01
RMM: 114    -0.230428074557E+04    0.35739E-04   -0.44515E-05  2980   0.466E-03    0.167E-01
RMM: 115    -0.230428075833E+04   -0.12760E-04   -0.18807E-04  3378   0.630E-03    0.129E-01
RMM: 116    -0.230428076755E+04   -0.92186E-05   -0.20587E-03  4684   0.195E-02    0.245E-02
RMM: 117    -0.230428079033E+04   -0.22779E-04   -0.24976E-04  3171   0.639E-03    0.242E-02
RMM: 118    -0.230428078386E+04    0.64653E-05   -0.22445E-05  2904   0.310E-03
   1 F= -.23246275E+04 E0= -.23246275E+04  d E =-.637547E-04  mag=     2.9983
       N       E                     dE             d eps       ncg     rms          rms(c)
DAV:   1    -0.230424270685E+04    0.38083E-01   -0.21145E+00  4480   0.711E-01    0.384E-01
RMM:   2    -0.230424337499E+04   -0.66815E-03   -0.13229E-02  4400   0.514E-02    0.488E-01
RMM:   3    -0.230424231818E+04    0.10568E-02   -0.37184E-03  5097   0.264E-02    0.368E-01
RMM:   4    -0.230424122490E+04    0.10933E-02   -0.13629E-03  4432   0.162E-02    0.937E-02
RMM:   5    -0.230424115987E+04    0.65037E-04   -0.50370E-04  4413   0.861E-03    0.229E-02
RMM:   6    -0.230424115633E+04    0.35406E-05   -0.31782E-05  2872   0.416E-03
   2 F= -.23245890E+04 E0= -.23245890E+04  d E =-.177079E-04  mag=     2.9993
       N       E                     dE             d eps       ncg     rms          rms(c)
DAV:   1    -0.230428980540E+04   -0.48646E-01   -0.83892E+00  4480   0.140E+00    0.736E-01
RMM:   2    -0.230429256313E+04   -0.27577E-02   -0.50169E-02  4671   0.103E-01    0.907E-01
RMM:   3    -0.230428836758E+04    0.41955E-02   -0.13117E-02  5673   0.529E-02    0.690E-01
RMM:   4    -0.230428443623E+04    0.39314E-02   -0.51079E-03  5193   0.315E-02    0.167E-01
RMM:   5    -0.230428430351E+04    0.13271E-03   -0.18373E-03  4865   0.151E-02    0.508E-02
RMM:   6    -0.230428427502E+04    0.28497E-04   -0.10475E-04  3149   0.743E-03    0.266E-02
RMM:   7    -0.230428427221E+04    0.28059E-05   -0.38120E-05  3178   0.340E-03
   3 F= -.23246301E+04 E0= -.23246300E+04  d E =-.207090E-03  mag=     2.9985
       N       E                     dE             d eps       ncg     rms          rms(c)
DAV:   1    -0.230428761613E+04   -0.33411E-02   -0.39545E+00  4480   0.827E-01    0.428E-01
RMM:   2    -0.230428901871E+04   -0.14026E-02   -0.14085E-02  4383   0.494E-02    0.612E-01
RMM:   3    -0.230428629726E+04    0.27214E-02   -0.38132E-03  5364   0.254E-02    0.285E-01
RMM:   4    -0.230428571795E+04    0.57931E-03   -0.14413E-03  4396   0.161E-02    0.107E-01
RMM:   5    -0.230428566524E+04    0.52717E-04   -0.37377E-04  4120   0.836E-03    0.455E-02
RMM:   6    -0.230428566061E+04    0.46264E-05   -0.44512E-05  2987   0.433E-03
   4 F= -.23246311E+04 E0= -.23246311E+04  d E =-.994220E-04  mag=     2.9990
       N       E                     dE             d eps       ncg     rms          rms(c)
DAV:   1    -0.230427232562E+04    0.13340E-01   -0.76598E+00  4480   0.110E+00    0.585E-01
RMM:   2    -0.230427135921E+04    0.96642E-03   -0.24683E-02  4311   0.643E-02    0.398E-01
RMM:   3    -0.230427507459E+04   -0.37154E-02   -0.99431E-03  5809   0.408E-02    0.814E-01
RMM:   4    -0.230426958469E+04    0.54899E-02   -0.37014E-03  4914   0.256E-02    0.118E-01
RMM:   5    -0.230426962976E+04   -0.45063E-04   -0.74606E-04  4247   0.106E-02    0.554E-02
RMM:   6    -0.230426964533E+04   -0.15573E-04   -0.64650E-05  3103   0.584E-03    0.286E-02
RMM:   7    -0.230426965073E+04   -0.53961E-05   -0.19566E-05  2970   0.355E-03
   5 F= -.23246177E+04 E0= -.23246176E+04  d E =-.366827E-04  mag=     2.9995
       N       E                     dE             d eps       ncg     rms          rms(c)
DAV:   1    -0.230426695200E+04    0.26933E-02   -0.40686E+00  4480   0.800E-01    0.540E-01
RMM:   2    -0.230426810758E+04   -0.11556E-02   -0.21071E-02  4461   0.609E-02    0.501E-01
RMM:   3    -0.230426851061E+04   -0.40303E-03   -0.73221E-03  5626   0.358E-02    0.557E-01
RMM:   4    -0.230426599542E+04    0.25152E-02   -0.24596E-03  4469   0.231E-02    0.141E-01
RMM:   5    -0.230426595443E+04    0.40990E-04   -0.89718E-04  4777   0.129E-02    0.946E-02
RMM:   6    -0.230426595163E+04    0.27988E-05   -0.12846E-04  3295   0.747E-03    0.228E-02
RMM:   7    -0.230426596249E+04   -0.10858E-04   -0.35883E-05  3025   0.381E-03    0.118E-02
RMM:   8    -0.230426596615E+04   -0.36581E-05   -0.75480E-06  2879   0.287E-03
   6 F= -.23246159E+04 E0= -.23246158E+04  d E =-.176287E-03  mag=     2.9988
       N       E                     dE             d eps       ncg     rms          rms(c)
DAV:   1    -0.230428527717E+04   -0.19315E-01   -0.79805E+00  4480   0.123E+00    0.728E-01
RMM:   2    -0.230428699962E+04   -0.17224E-02   -0.43726E-02  4591   0.869E-02    0.654E-01
RMM:   3    -0.230428799241E+04   -0.99279E-03   -0.13954E-02  5654   0.510E-02    0.781E-01
RMM:   4    -0.230428330851E+04    0.46839E-02   -0.50690E-03  4958   0.306E-02    0.252E-01
RMM:   5    -0.230428302497E+04    0.28354E-03   -0.18406E-03  5070   0.172E-02    0.126E-01
RMM:   6    -0.230428301867E+04    0.63044E-05   -0.22715E-04  3486   0.106E-02    0.433E-02
RMM:   7    -0.230428302551E+04   -0.68368E-05   -0.73851E-05  3260   0.487E-03
   7 F= -.23246266E+04 E0= -.23246265E+04  d E =-.187449E-04  mag=     2.9995
       N       E                     dE             d eps       ncg     rms          rms(c)
DAV:   1    -0.230427006934E+04    0.12949E-01   -0.25334E+00  4480   0.701E-01    0.543E-01
RMM:   2    -0.230426806023E+04    0.20091E-02   -0.28709E-02  4718   0.661E-02    0.351E-01
RMM:   3    -0.230426749575E+04    0.56448E-03   -0.53623E-03  5107   0.374E-02    0.401E-01
RMM:   4    -0.230426675603E+04    0.73973E-03   -0.23426E-03  4713   0.198E-02    0.283E-01
RMM:   5    -0.230426613988E+04    0.61615E-03   -0.93061E-04  4676   0.126E-02    0.830E-02
RMM:   6    -0.230426612822E+04    0.11653E-04   -0.10775E-04  3192   0.707E-03    0.393E-02
RMM:   7    -0.230426611988E+04    0.83450E-05   -0.24435E-05  2946   0.311E-03
   8 F= -.23246137E+04 E0= -.23246137E+04  d E =-.678302E-04  mag=     2.9995
       N       E                     dE             d eps       ncg     rms          rms(c)
DAV:   1    -0.230427958534E+04   -0.13457E-01   -0.12764E+00  4960   0.528E-01    0.622E-01
RMM:   2    -0.230427547465E+04    0.41107E-02   -0.31019E-02  5108   0.668E-02    0.458E-01
RMM:   3    -0.230427458952E+04    0.88513E-03   -0.60316E-03  4967   0.388E-02    0.487E-01
RMM:   4    -0.230427340792E+04    0.11816E-02   -0.32210E-03  5191   0.228E-02    0.327E-01
RMM:   5    -0.230427255839E+04    0.84953E-03   -0.79688E-04  4387   0.134E-02    0.516E-02
RMM:   6    -0.230427255069E+04    0.76963E-05   -0.14627E-04  3369   0.691E-03    0.170E-02
RMM:   7    -0.230427254870E+04    0.19951E-05   -0.18160E-05  2915   0.307E-03
   9 F= -.23246185E+04 E0= -.23246184E+04  d E =-.583985E-04  mag=     2.9995
       N       E                     dE             d eps       ncg     rms          rms(c)
DAV:   1    -0.230427883665E+04   -0.62860E-02   -0.61075E-01  4880   0.348E-01    0.338E-01
RMM:   2    -0.230427822020E+04    0.61645E-03   -0.66169E-03  4558   0.317E-02    0.270E-01
RMM:   3    -0.230427849149E+04   -0.27129E-03   -0.21321E-03  4469   0.213E-02    0.354E-01
RMM:   4    -0.230427761562E+04    0.87587E-03   -0.11086E-03  4454   0.142E-02    0.139E-01
RMM:   5    -0.230427748166E+04    0.13396E-03   -0.21374E-04  3617   0.755E-03    0.230E-02
RMM:   6    -0.230427748093E+04    0.73045E-06   -0.33834E-05  2952   0.417E-03
  10 F= -.23246238E+04 E0= -.23246238E+04  d E =-.581321E-04  mag=     2.9995
       N       E                     dE             d eps       ncg     rms          rms(c)
DAV:   1    -0.230428227770E+04   -0.47960E-02   -0.11899E+00  4480   0.485E-01    0.377E-01
RMM:   2    -0.230428190650E+04    0.37120E-03   -0.53152E-03  4147   0.316E-02    0.247E-01
RMM:   3    -0.230428303582E+04   -0.11293E-02   -0.28446E-03  5253   0.217E-02    0.442E-01
RMM:   4    -0.230428157464E+04    0.14612E-02   -0.13812E-03  4508   0.159E-02    0.123E-01
RMM:   5    -0.230428147579E+04    0.98851E-04   -0.27146E-04  3777   0.821E-03    0.310E-02
RMM:   6    -0.230428147362E+04    0.21690E-05   -0.40323E-05  2937   0.362E-03
  11 F= -.23246285E+04 E0= -.23246285E+04  d E =-.662299E-04  mag=     2.9995
       N       E                     dE             d eps       ncg     rms          rms(c)
DAV:   1    -0.230429084754E+04   -0.93718E-02   -0.60545E-01  4640   0.359E-01    0.293E-01
RMM:   2    -0.230429048776E+04    0.35978E-03   -0.47626E-03  4407   0.277E-02    0.212E-01
RMM:   3    -0.230429078866E+04   -0.30090E-03   -0.16543E-03  4681   0.175E-02    0.304E-01
RMM:   4    -0.230429019196E+04    0.59670E-03   -0.83089E-04  4150   0.122E-02    0.131E-01
RMM:   5    -0.230429008258E+04    0.10938E-03   -0.19085E-04  3712   0.712E-03    0.304E-02
RMM:   6    -0.230429007996E+04    0.26198E-05   -0.26831E-05  2886   0.360E-03
  12 F= -.23246368E+04 E0= -.23246368E+04  d E =-.664430E-04  mag=     2.9995
       N       E                     dE             d eps       ncg     rms          rms(c)
DAV:   1    -0.230426746538E+04    0.22617E-01   -0.11989E+00  4560   0.494E-01    0.392E-01
RMM:   2    -0.230426688491E+04    0.58047E-03   -0.74890E-03  4445   0.365E-02    0.259E-01
RMM:   3    -0.230426728534E+04   -0.40043E-03   -0.24431E-03  4786   0.229E-02    0.345E-01
RMM:   4    -0.230426671167E+04    0.57367E-03   -0.14395E-03  4592   0.157E-02    0.212E-01
RMM:   5    -0.230426639706E+04    0.31462E-03   -0.37898E-04  3936   0.978E-03    0.355E-02
RMM:   6    -0.230426639599E+04    0.10704E-05   -0.45361E-05  3009   0.421E-03
  13 F= -.23246131E+04 E0= -.23246130E+04  d E =-.585122E-04  mag=     2.9995
       N       E                     dE             d eps       ncg     rms          rms(c)
DAV:   1    -0.230427236608E+04   -0.59690E-02   -0.57775E-01  4480   0.368E-01    0.311E-01
RMM:   2    -0.230427414149E+04   -0.17754E-02   -0.87882E-03  4929   0.399E-02    0.547E-01
RMM:   3    -0.230427199775E+04    0.21437E-02   -0.26388E-03  4870   0.230E-02    0.208E-01
RMM:   4    -0.230427169455E+04    0.30320E-03   -0.62076E-04  3961   0.114E-02    0.923E-02
RMM:   5    -0.230427165490E+04    0.39648E-04   -0.20426E-04  3950   0.655E-03    0.209E-02
RMM:   6    -0.230427165691E+04   -0.20099E-05   -0.18645E-05  2833   0.352E-03
  14 F= -.23246175E+04 E0= -.23246175E+04  d E =-.312668E-04  mag=     2.9997
       N       E                     dE             d eps       ncg     rms          rms(c)
DAV:   1    -0.230428332586E+04   -0.11671E-01   -0.11036E+00  4480   0.462E-01    0.428E-01
RMM:   2    -0.230429014395E+04   -0.68181E-02   -0.19733E-02  5345   0.583E-02    0.966E-01
RMM:   3    -0.230428291048E+04    0.72335E-02   -0.61290E-03  5488   0.341E-02    0.215E-01
RMM:   4    -0.230428260582E+04    0.30466E-03   -0.11360E-03  4358   0.140E-02    0.984E-02
RMM:   5    -0.230428258283E+04    0.22997E-04   -0.31892E-04  4195   0.785E-03    0.388E-02
RMM:   6    -0.230428257867E+04    0.41544E-05   -0.36452E-05  2920   0.411E-03
  15 F= -.23246302E+04 E0= -.23246302E+04  d E =-.111592E-03  mag=     2.9993
       N       E                     dE             d eps       ncg     rms          rms(c)
DAV:   1    -0.230428122862E+04    0.13542E-02   -0.54141E-01  4480   0.340E-01    0.262E-01
RMM:   2    -0.230428433843E+04   -0.31098E-02   -0.80408E-03  4932   0.385E-02    0.629E-01
RMM:   3    -0.230428119546E+04    0.31430E-02   -0.22864E-03  4895   0.205E-02    0.118E-01
RMM:   4    -0.230428111836E+04    0.77100E-04   -0.42507E-04  3783   0.859E-03    0.564E-02
RMM:   5    -0.230428111433E+04    0.40262E-05   -0.93118E-05  3488   0.516E-03
  16 F= -.23246292E+04 E0= -.23246291E+04  d E =-.469379E-04  mag=     2.9995
       N       E                     dE             d eps       ncg     rms          rms(c)
DAV:   1    -0.230427800600E+04    0.31124E-02   -0.10430E+00  4480   0.458E-01    0.228E-01
RMM:   2    -0.230427882639E+04   -0.82039E-03   -0.41428E-03  3961   0.280E-02    0.272E-01
RMM:   3    -0.230427854897E+04    0.27742E-03   -0.10106E-03  4098   0.138E-02    0.190E-01
RMM:   4    -0.230427837351E+04    0.17546E-03   -0.36596E-04  4053   0.874E-03    0.595E-02
RMM:   5    -0.230427837417E+04   -0.66464E-06   -0.11399E-04  3180   0.562E-03    0.226E-02
RMM:   6    -0.230427837620E+04   -0.20239E-05   -0.13097E-05  2755   0.279E-03
  17 F= -.23246238E+04 E0= -.23246237E+04  d E =-.858640E-04  mag=     2.9994
       N       E                     dE             d eps       ncg     rms          rms(c)
DAV:   1    -0.230427764067E+04    0.73350E-03   -0.53409E-01  4480   0.326E-01    0.189E-01
RMM:   2    -0.230427786159E+04   -0.22092E-03   -0.26323E-03  4312   0.222E-02    0.148E-01
RMM:   3    -0.230427801097E+04   -0.14938E-03   -0.70533E-04  3800   0.128E-02    0.197E-01
RMM:   4    -0.230427774827E+04    0.26270E-03   -0.32198E-04  3380   0.819E-03    0.759E-02
RMM:   5    -0.230427772500E+04    0.23264E-04   -0.77787E-05  3285   0.461E-03    0.197E-02
RMM:   6    -0.230427772753E+04   -0.25290E-05   -0.84997E-06  2740   0.272E-03
  18 F= -.23246215E+04 E0= -.23246215E+04  d E =-.619036E-04  mag=     2.9995
       N       E                     dE             d eps       ncg     rms          rms(c)
DAV:   1    -0.230428233093E+04   -0.46059E-02   -0.10400E+00  4480   0.465E-01    0.322E-01
RMM:   2    -0.230428227975E+04    0.51182E-04   -0.86943E-03  4717   0.400E-02    0.188E-01
RMM:   3    -0.230428214274E+04    0.13702E-03   -0.11162E-03  3677   0.219E-02    0.185E-01
RMM:   4    -0.230428221003E+04   -0.67295E-04   -0.78854E-04  4165   0.112E-02    0.197E-01
RMM:   5    -0.230428191346E+04    0.29657E-03   -0.24130E-04  3616   0.806E-03    0.291E-02
RMM:   6    -0.230428191568E+04   -0.22177E-05   -0.33940E-05  2836   0.354E-03
  19 F= -.23246315E+04 E0= -.23246315E+04  d E =-.606792E-04  mag=     2.9995
       N       E                     dE             d eps       ncg     rms          rms(c)
DAV:   1    -0.230427495126E+04    0.69622E-02   -0.51952E-01  4480   0.324E-01    0.201E-01
RMM:   2    -0.230427492470E+04    0.26563E-04   -0.28234E-03  4147   0.229E-02    0.127E-01
RMM:   3    -0.230427488990E+04    0.34805E-04   -0.50022E-04  3724   0.127E-02    0.119E-01
RMM:   4    -0.230427494272E+04   -0.52821E-04   -0.36091E-04  3486   0.806E-03    0.140E-01
RMM:   5    -0.230427479308E+04    0.14963E-03   -0.11592E-04  3289   0.585E-03    0.235E-02
RMM:   6    -0.230427479498E+04   -0.18953E-05   -0.13775E-05  2693   0.236E-03
  20 F= -.23246217E+04 E0= -.23246216E+04  d E =-.474987E-04  mag=     2.9996
       N       E                     dE             d eps       ncg     rms          rms(c)
DAV:   1    -0.230428650530E+04   -0.11712E-01   -0.11378E+00  4480   0.368E-01    0.286E-01
RMM:   2    -0.230428632747E+04    0.17783E-03   -0.36489E-03  4083   0.241E-02    0.222E-01
RMM:   3    -0.230428674027E+04   -0.41280E-03   -0.15819E-03  4411   0.173E-02    0.316E-01
RMM:   4    -0.230428594457E+04    0.79570E-03   -0.90312E-04  4534   0.123E-02    0.984E-02
RMM:   5    -0.230428588383E+04    0.60740E-04   -0.11075E-04  3104   0.553E-03    0.306E-02
RMM:   6    -0.230428588001E+04    0.38207E-05   -0.16435E-05  2758   0.284E-03
  21 F= -.23246324E+04 E0= -.23246324E+04  d E =-.812182E-04  mag=     2.9995
       N       E                     dE             d eps       ncg     rms          rms(c)
DAV:   1    -0.230427884042E+04    0.70434E-02   -0.56563E-01  4480   0.258E-01    0.208E-01
RMM:   2    -0.230427908690E+04   -0.24648E-03   -0.21395E-03  4415   0.188E-02    0.287E-01
RMM:   3    -0.230427864289E+04    0.44401E-03   -0.91539E-04  4250   0.122E-02    0.155E-01
RMM:   4    -0.230427843258E+04    0.21031E-03   -0.27934E-04  3953   0.741E-03    0.538E-02
RMM:   5    -0.230427841825E+04    0.14334E-04   -0.56320E-05  2921   0.428E-03    0.170E-02
RMM:   6    -0.230427841607E+04    0.21806E-05   -0.85953E-06  2679   0.237E-03
  22 F= -.23246252E+04 E0= -.23246252E+04  d E =-.734095E-04  mag=     2.9994
       N       E                     dE             d eps       ncg     rms          rms(c)
DAV:   1    -0.230428213740E+04   -0.37192E-02   -0.11362E+00  4480   0.361E-01    0.300E-01
RMM:   2    -0.230428278435E+04   -0.64695E-03   -0.35074E-03  4794   0.236E-02    0.396E-01
RMM:   3    -0.230428201426E+04    0.77009E-03   -0.17379E-03  4691   0.168E-02    0.234E-01
RMM:   4    -0.230428158264E+04    0.43162E-03   -0.60489E-04  4405   0.100E-02    0.643E-02
RMM:   5    -0.230428157709E+04    0.55477E-05   -0.10424E-04  3159   0.537E-03    0.243E-02
RMM:   6    -0.230428157245E+04    0.46365E-05   -0.19638E-05  2817   0.323E-03
  23 F= -.23246282E+04 E0= -.23246282E+04  d E =-.528678E-04  mag=     2.9995
       N       E                     dE             d eps       ncg     rms          rms(c)
DAV:   1    -0.230430299191E+04   -0.21415E-01   -0.57883E-01  4480   0.262E-01    0.229E-01
RMM:   2    -0.230430346880E+04   -0.47689E-03   -0.24553E-03  4259   0.210E-02    0.276E-01
RMM:   3    -0.230430310721E+04    0.36159E-03   -0.10119E-03  4623   0.127E-02    0.206E-01
RMM:   4    -0.230430280106E+04    0.30615E-03   -0.37219E-04  4100   0.863E-03    0.533E-02
RMM:   5    -0.230430278885E+04    0.12204E-04   -0.13724E-04  3457   0.583E-03    0.245E-02
RMM:   6    -0.230430278514E+04    0.37177E-05   -0.15581E-05  2791   0.331E-03
  24 F= -.23246497E+04 E0= -.23246497E+04  d E =-.848721E-04  mag=     2.9994
       N       E                     dE             d eps       ncg     rms          rms(c)
DAV:   1    -0.230425243768E+04    0.50351E-01   -0.11673E+00  4480   0.385E-01    0.399E-01
RMM:   2    -0.230425727811E+04   -0.48404E-02   -0.13598E-02  5312   0.465E-02    0.812E-01
RMM:   3    -0.230425187977E+04    0.53983E-02   -0.41426E-03  5471   0.278E-02    0.235E-01
RMM:   4    -0.230425156297E+04    0.31681E-03   -0.96240E-04  4822   0.133E-02    0.102E-01
RMM:   5    -0.230425145059E+04    0.11238E-03   -0.31850E-04  4191   0.808E-03    0.402E-02
RMM:   6    -0.230425144911E+04    0.14811E-05   -0.39763E-05  2948   0.442E-03
  25 F= -.23245980E+04 E0= -.23245980E+04  d E =-.448488E-04  mag=     2.9996
