       N       E                     dE             d eps       ncg     rms          rms(c)
DAV:   1     0.126351422920E+05    0.12635E+05   -0.82579E+05  4440   0.143E+03
DAV:   2    -0.107488791778E+04   -0.13710E+05   -0.13133E+05  5296   0.329E+02
DAV:   3    -0.246558698480E+04   -0.13907E+04   -0.13781E+04  5328   0.110E+02
DAV:   4    -0.251000035040E+04   -0.44413E+02   -0.44202E+02  6656   0.293E+01
DAV:   5    -0.251082262731E+04   -0.82228E+00   -0.82096E+00  5544   0.321E+00    0.170E+02
RMM:   6    -0.146719579860E+04    0.10436E+04   -0.19472E+03  4377   0.388E+01    0.723E+01
RMM:   7    -0.163818726958E+04   -0.17099E+03   -0.27731E+02  4935   0.139E+01    0.472E+01
RMM:   8    -0.169623035228E+04   -0.58043E+02   -0.28973E+01  5105   0.638E+00    0.331E+01
RMM:   9    -0.187857202432E+04   -0.18234E+03   -0.86651E+01  4584   0.927E+00    0.234E+01
RMM:  10    -0.197167922692E+04   -0.93107E+02   -0.38888E+01  4827   0.571E+00    0.243E+01
RMM:  11    -0.204132021909E+04   -0.69641E+02   -0.28019E+01  4850   0.433E+00    0.156E+01
RMM:  12    -0.218389205115E+04   -0.14257E+03   -0.10461E+02  4381   0.759E+00    0.116E+01
RMM:  13    -0.226748486296E+04   -0.83593E+02   -0.74401E+01  4537   0.616E+00    0.741E+00
RMM:  14    -0.229461314546E+04   -0.27128E+02   -0.30465E+01  4795   0.430E+00    0.563E+00
RMM:  15    -0.229881402409E+04   -0.42009E+01   -0.59218E+00  5300   0.171E+00    0.494E+00
RMM:  16    -0.230088651781E+04   -0.20725E+01   -0.18673E+00  4735   0.919E-01    0.271E+00
RMM:  17    -0.230396190060E+04   -0.30754E+01   -0.24221E+00  4485   0.885E-01    0.115E+00
RMM:  18    -0.230463255046E+04   -0.67065E+00   -0.58026E-01  4694   0.489E-01    0.106E+00
RMM:  19    -0.230491696979E+04   -0.28442E+00   -0.26748E-01  4674   0.265E-01    0.904E-01
RMM:  20    -0.230502562629E+04   -0.10866E+00   -0.79526E-02  4535   0.183E-01    0.279E-01
RMM:  21    -0.230509325363E+04   -0.67627E-01   -0.35798E-02  4589   0.122E-01    0.229E-01
RMM:  22    -0.230511937615E+04   -0.26123E-01   -0.84007E-03  4628   0.779E-02    0.124E-01
RMM:  23    -0.230514331491E+04   -0.23939E-01   -0.67607E-03  4382   0.563E-02    0.887E-02
RMM:  24    -0.230515237668E+04   -0.90618E-02   -0.23422E-03  4481   0.436E-02    0.519E-02
RMM:  25    -0.230515718303E+04   -0.48064E-02   -0.13824E-03  4442   0.260E-02    0.319E-02
RMM:  26    -0.230515927365E+04   -0.20906E-02   -0.55054E-04  4082   0.211E-02    0.211E-02
RMM:  27    -0.230516015409E+04   -0.88044E-03   -0.28615E-04  3925   0.122E-02    0.997E-03
RMM:  28    -0.230516041871E+04   -0.26462E-03   -0.84563E-05  3640   0.977E-03    0.513E-03
RMM:  29    -0.230516051751E+04   -0.98794E-04   -0.35096E-05  3227   0.489E-03    0.355E-03
RMM:  30    -0.230516054779E+04   -0.30287E-04   -0.10116E-05  2833   0.428E-03    0.245E-03
RMM:  31    -0.230516056394E+04   -0.16149E-04   -0.61595E-06  2805   0.265E-03    0.134E-03
RMM:  32    -0.230516056963E+04   -0.56864E-05   -0.32065E-06  2447   0.227E-03
   1 F= -.23255455E+04 E0= -.23255455E+04  d E =-.232555E+04  mag=     2.9999
       N       E                     dE             d eps       ncg     rms          rms(c)
DAV:   1    -0.230518700822E+04   -0.26444E-01   -0.48506E+00  5048   0.179E+00    0.827E-01
RMM:   2    -0.230527964394E+04   -0.92636E-01   -0.85973E-01  5956   0.404E-01    0.173E+00
RMM:   3    -0.230527681775E+04    0.28262E-02   -0.96059E-02  5512   0.166E-01    0.997E-01
RMM:   4    -0.230527162340E+04    0.51943E-02   -0.87134E-03  5395   0.367E-02    0.325E-01
RMM:   5    -0.230527040493E+04    0.12185E-02   -0.23115E-03  5221   0.243E-02    0.139E-01
RMM:   6    -0.230527014159E+04    0.26335E-03   -0.12126E-03  4942   0.205E-02    0.344E-02
RMM:   7    -0.230527011050E+04    0.31091E-04   -0.11007E-04  3703   0.951E-03    0.168E-02
RMM:   8    -0.230527010097E+04    0.95271E-05   -0.25222E-05  2921   0.430E-03
   2 F= -.23256546E+04 E0= -.23256546E+04  d E =-.109081E+00  mag=     3.0000
       N       E                     dE             d eps       ncg     rms          rms(c)
DAV:   1    -0.230512643581E+04    0.14367E+00   -0.11968E+01  4592   0.282E+00    0.133E+00
RMM:   2    -0.230535957481E+04   -0.23314E+00   -0.20903E+00  5847   0.620E-01    0.309E+00
RMM:   3    -0.230534713037E+04    0.12444E-01   -0.25544E-01  5283   0.314E-01    0.148E+00
RMM:   4    -0.230533400244E+04    0.13128E-01   -0.22194E-02  5406   0.599E-02    0.500E-01
RMM:   5    -0.230533114235E+04    0.28601E-02   -0.57764E-03  5357   0.391E-02    0.219E-01
RMM:   6    -0.230533051865E+04    0.62370E-03   -0.29220E-03  4962   0.309E-02    0.804E-02
RMM:   7    -0.230533043928E+04    0.79374E-04   -0.33813E-04  4450   0.158E-02    0.531E-02
RMM:   8    -0.230533040997E+04    0.29302E-04   -0.75503E-05  3341   0.592E-03    0.178E-02
RMM:   9    -0.230533040059E+04    0.93791E-05   -0.20529E-05  2881   0.458E-03
   3 F= -.23257155E+04 E0= -.23257155E+04  d E =-.170039E+00  mag=     3.0000
       N       E                     dE             d eps       ncg     rms          rms(c)
DAV:   1    -0.230537780558E+04   -0.47396E-01   -0.30318E+00  4576   0.168E+00    0.821E-01
RMM:   2    -0.230542537940E+04   -0.47574E-01   -0.25046E-01  5813   0.356E-01    0.257E+00
RMM:   3    -0.230539407704E+04    0.31302E-01   -0.27797E-02  5541   0.119E-01    0.381E-01
RMM:   4    -0.230539269216E+04    0.13849E-02   -0.43110E-03  4607   0.381E-02    0.197E-01
RMM:   5    -0.230539225308E+04    0.43909E-03   -0.14772E-03  5348   0.311E-02    0.129E-01
RMM:   6    -0.230539212329E+04    0.12979E-03   -0.43652E-04  5135   0.155E-02    0.329E-02
RMM:   7    -0.230539210647E+04    0.16816E-04   -0.70082E-05  3288   0.816E-03    0.217E-02
RMM:   8    -0.230539209893E+04    0.75354E-05   -0.16560E-05  2844   0.425E-03
   4 F= -.23257781E+04 E0= -.23257781E+04  d E =-.625921E-01  mag=     3.0000
       N       E                     dE             d eps       ncg     rms          rms(c)
DAV:   1    -0.230539879406E+04   -0.66876E-02   -0.23200E+00  4536   0.148E+00    0.724E-01
RMM:   2    -0.230543577539E+04   -0.36981E-01   -0.19622E-01  5767   0.318E-01    0.222E+00
RMM:   3    -0.230541121373E+04    0.24562E-01   -0.21631E-02  5489   0.106E-01    0.326E-01
RMM:   4    -0.230541013643E+04    0.10773E-02   -0.33233E-03  4611   0.337E-02    0.169E-01
RMM:   5    -0.230540977540E+04    0.36103E-03   -0.11814E-03  5382   0.279E-02    0.112E-01
RMM:   6    -0.230540966332E+04    0.11208E-03   -0.33887E-04  5045   0.137E-02    0.301E-02
RMM:   7    -0.230540964546E+04    0.17867E-04   -0.59773E-05  3187   0.738E-03    0.201E-02
RMM:   8    -0.230540963746E+04    0.79974E-05   -0.15530E-05  2843   0.416E-03
   5 F= -.23257964E+04 E0= -.23257964E+04  d E =-.808615E-01  mag=     3.0000
       N       E                     dE             d eps       ncg     rms          rms(c)
DAV:   1    -0.230540477203E+04    0.48734E-02   -0.32588E+00  4464   0.141E+00    0.667E-01
RMM:   2    -0.230547981406E+04   -0.75042E-01   -0.69152E-01  6236   0.383E-01    0.146E+00
RMM:   3    -0.230547363119E+04    0.61829E-02   -0.66243E-02  5770   0.118E-01    0.373E-01
RMM:   4    -0.230547316477E+04    0.46641E-03   -0.71123E-03  4964   0.300E-02    0.172E-01
RMM:   5    -0.230547289048E+04    0.27430E-03   -0.12746E-03  5184   0.214E-02    0.189E-01
RMM:   6    -0.230547270209E+04    0.18838E-03   -0.50497E-04  4603   0.140E-02    0.354E-02
RMM:   7    -0.230547269793E+04    0.41649E-05   -0.45502E-05  2904   0.554E-03
   6 F= -.23258603E+04 E0= -.23258603E+04  d E =-.638787E-01  mag=     3.0000
       N       E                     dE             d eps       ncg     rms          rms(c)
DAV:   1    -0.230530493748E+04    0.16776E+00   -0.10208E+01  4432   0.250E+00    0.116E+00
RMM:   2    -0.230553522041E+04   -0.23028E+00   -0.21605E+00  6241   0.689E-01    0.248E+00
RMM:   3    -0.230552132965E+04    0.13891E-01   -0.21157E-01  5803   0.214E-01    0.680E-01
RMM:   4    -0.230551954050E+04    0.17892E-02   -0.19895E-02  5105   0.534E-02    0.298E-01
RMM:   5    -0.230551866354E+04    0.87695E-03   -0.35582E-03  5391   0.359E-02    0.269E-01
RMM:   6    -0.230551827132E+04    0.39222E-03   -0.12169E-03  5154   0.234E-02    0.500E-02
RMM:   7    -0.230551828796E+04   -0.16642E-04   -0.13374E-04  3388   0.840E-03    0.499E-02
RMM:   8    -0.230551827312E+04    0.14839E-04   -0.38413E-05  2926   0.512E-03    0.156E-02
RMM:   9    -0.230551827102E+04    0.21076E-05   -0.17783E-05  2839   0.406E-03
   7 F= -.23259072E+04 E0= -.23259072E+04  d E =-.110801E+00  mag=     3.0000
       N       E                     dE             d eps       ncg     rms          rms(c)
DAV:   1    -0.230550962071E+04    0.86524E-02   -0.30182E+00  4480   0.156E+00    0.643E-01
RMM:   2    -0.230555218557E+04   -0.42565E-01   -0.46194E-01  5858   0.341E-01    0.280E-01
RMM:   3    -0.230555419658E+04   -0.20110E-02   -0.38412E-02  5362   0.114E-01    0.181E-01
RMM:   4    -0.230555469633E+04   -0.49975E-03   -0.50524E-03  5149   0.316E-02    0.309E-01
RMM:   5    -0.230555416175E+04    0.53458E-03   -0.10326E-03  5011   0.209E-02    0.138E-01
RMM:   6    -0.230555405574E+04    0.10600E-03   -0.21900E-04  4285   0.100E-02    0.298E-02
RMM:   7    -0.230555405460E+04    0.11455E-05   -0.39698E-05  2975   0.756E-03
   8 F= -.23259427E+04 E0= -.23259427E+04  d E =-.355129E-01  mag=     3.0000
       N       E                     dE             d eps       ncg     rms          rms(c)
DAV:   1    -0.230554271290E+04    0.11343E-01   -0.11728E+00  4528   0.961E-01    0.400E-01
RMM:   2    -0.230555959617E+04   -0.16883E-01   -0.18289E-01  5844   0.212E-01    0.174E-01
RMM:   3    -0.230556033716E+04   -0.74099E-03   -0.14522E-02  5301   0.669E-02    0.105E-01
RMM:   4    -0.230556036437E+04   -0.27212E-04   -0.18866E-03  4711   0.204E-02    0.125E-01
RMM:   5    -0.230556033278E+04    0.31598E-04   -0.31056E-04  3713   0.127E-02    0.109E-01
RMM:   6    -0.230556026058E+04    0.72199E-04   -0.93805E-05  3453   0.669E-03    0.177E-02
RMM:   7    -0.230556025720E+04    0.33775E-05   -0.19068E-05  2872   0.480E-03
   9 F= -.23259487E+04 E0= -.23259487E+04  d E =-.415360E-01  mag=     3.0000
       N       E                     dE             d eps       ncg     rms          rms(c)
DAV:   1    -0.230553913209E+04    0.21128E-01   -0.30236E+00  4440   0.146E+00    0.650E-01
RMM:   2    -0.230559049227E+04   -0.51360E-01   -0.53157E-01  6009   0.360E-01    0.717E-01
RMM:   3    -0.230559491138E+04   -0.44191E-02   -0.60075E-02  5709   0.135E-01    0.764E-01
RMM:   4    -0.230559122073E+04    0.36906E-02   -0.64907E-03  5504   0.349E-02    0.212E-01
RMM:   5    -0.230559081418E+04    0.40655E-03   -0.18278E-03  5216   0.219E-02    0.126E-01
RMM:   6    -0.230559068996E+04    0.12423E-03   -0.51789E-04  4762   0.158E-02    0.339E-02
RMM:   7    -0.230559067935E+04    0.10602E-04   -0.74862E-05  3314   0.712E-03    0.154E-02
RMM:   8    -0.230559067237E+04    0.69849E-05   -0.17108E-05  2871   0.432E-03
  10 F= -.23259786E+04 E0= -.23259786E+04  d E =-.298505E-01  mag=     3.0000
       N       E                     dE             d eps       ncg     rms          rms(c)
DAV:   1    -0.230556532820E+04    0.25351E-01   -0.19306E+00  4432   0.117E+00    0.522E-01
RMM:   2    -0.230559864215E+04   -0.33314E-01   -0.34335E-01  6049   0.287E-01    0.584E-01
RMM:   3    -0.230560111705E+04   -0.24749E-02   -0.38065E-02  5753   0.108E-01    0.588E-01
RMM:   4    -0.230559884821E+04    0.22688E-02   -0.41979E-03  5341   0.279E-02    0.164E-01
RMM:   5    -0.230559855320E+04    0.29500E-03   -0.11321E-03  5114   0.179E-02    0.905E-02
RMM:   6    -0.230559847480E+04    0.78408E-04   -0.32155E-04  4557   0.129E-02    0.234E-02
RMM:   7    -0.230559846759E+04    0.72093E-05   -0.51878E-05  3124   0.636E-03
  11 F= -.23259859E+04 E0= -.23259859E+04  d E =-.371775E-01  mag=     3.0000
       N       E                     dE             d eps       ncg     rms          rms(c)
DAV:   1    -0.230559413281E+04    0.43420E-02   -0.25512E+00  4432   0.133E+00    0.550E-01
RMM:   2    -0.230562938208E+04   -0.35249E-01   -0.32337E-01  5988   0.305E-01    0.905E-01
RMM:   3    -0.230562522620E+04    0.41559E-02   -0.24550E-02  5632   0.922E-02    0.379E-01
RMM:   4    -0.230562417010E+04    0.10561E-02   -0.32483E-03  5019   0.276E-02    0.151E-01
RMM:   5    -0.230562389607E+04    0.27403E-03   -0.99141E-04  5305   0.221E-02    0.856E-02
RMM:   6    -0.230562386186E+04    0.34209E-04   -0.26585E-04  4447   0.128E-02    0.206E-02
RMM:   7    -0.230562386183E+04    0.23138E-07   -0.36479E-05  2996   0.529E-03
  12 F= -.23260107E+04 E0= -.23260107E+04  d E =-.248395E-01  mag=     3.0000
       N       E                     dE             d eps       ncg     rms          rms(c)
DAV:   1    -0.230561221604E+04    0.11646E-01   -0.15037E+00  4432   0.102E+00    0.423E-01
RMM:   2    -0.230563322830E+04   -0.21012E-01   -0.19309E-01  5961   0.237E-01    0.686E-01
RMM:   3    -0.230563078336E+04    0.24449E-02   -0.14707E-02  5570   0.727E-02    0.290E-01
RMM:   4    -0.230563015957E+04    0.62379E-03   -0.19387E-03  4937   0.215E-02    0.116E-01
RMM:   5    -0.230562998472E+04    0.17485E-03   -0.59517E-04  5107   0.173E-02    0.634E-02
RMM:   6    -0.230562996175E+04    0.22974E-04   -0.16105E-04  4074   0.104E-02    0.159E-02
RMM:   7    -0.230562996113E+04    0.61723E-06   -0.25114E-05  2920   0.471E-03
  13 F= -.23260164E+04 E0= -.23260164E+04  d E =-.304946E-01  mag=     3.0000
       N       E                     dE             d eps       ncg     rms          rms(c)
DAV:   1    -0.230563454781E+04   -0.45861E-02   -0.11879E+00  4432   0.961E-01    0.392E-01
RMM:   2    -0.230564979689E+04   -0.15249E-01   -0.13764E-01  5849   0.212E-01    0.663E-01
RMM:   3    -0.230564726405E+04    0.25328E-02   -0.10202E-02  5421   0.621E-02    0.258E-01
RMM:   4    -0.230564677709E+04    0.48696E-03   -0.13192E-03  4503   0.179E-02    0.880E-02
RMM:   5    -0.230564670941E+04    0.67684E-04   -0.30368E-04  4681   0.141E-02    0.669E-02
RMM:   6    -0.230564668274E+04    0.26671E-04   -0.10230E-04  3965   0.846E-03    0.115E-02
RMM:   7    -0.230564668242E+04    0.32087E-06   -0.15368E-05  2834   0.493E-03
  14 F= -.23260325E+04 E0= -.23260325E+04  d E =-.160992E-01  mag=     3.0000
       N       E                     dE             d eps       ncg     rms          rms(c)
DAV:   1    -0.230563824005E+04    0.84427E-02   -0.15185E+00  4432   0.109E+00    0.445E-01
RMM:   2    -0.230565789966E+04   -0.19660E-01   -0.17630E-01  5816   0.240E-01    0.767E-01
RMM:   3    -0.230565443986E+04    0.34598E-02   -0.13062E-02  5436   0.692E-02    0.287E-01
RMM:   4    -0.230565385448E+04    0.58538E-03   -0.18593E-03  4549   0.202E-02    0.102E-01
RMM:   5    -0.230565377130E+04    0.83171E-04   -0.39440E-04  4933   0.156E-02    0.895E-02
RMM:   6    -0.230565371588E+04    0.55430E-04   -0.15464E-04  4303   0.940E-03    0.156E-02
RMM:   7    -0.230565371337E+04    0.25065E-05   -0.19320E-05  2848   0.513E-03
  15 F= -.23260388E+04 E0= -.23260388E+04  d E =-.223991E-01  mag=     3.0000
       N       E                     dE             d eps       ncg     rms          rms(c)
DAV:   1    -0.230565432347E+04   -0.60760E-03   -0.15188E+00  4416   0.118E+00    0.473E-01
RMM:   2    -0.230566491863E+04   -0.10595E-01   -0.10384E-01  5724   0.231E-01    0.548E-01
RMM:   3    -0.230566466927E+04    0.24936E-03   -0.93336E-03  5421   0.713E-02    0.517E-01
RMM:   4    -0.230566276075E+04    0.19085E-02   -0.16376E-03  4878   0.271E-02    0.102E-01
RMM:   5    -0.230566264577E+04    0.11499E-03   -0.68026E-04  5190   0.216E-02    0.722E-02
RMM:   6    -0.230566260384E+04    0.41933E-04   -0.10198E-04  4390   0.996E-03    0.156E-02
RMM:   7    -0.230566259823E+04    0.56055E-05   -0.24003E-05  2964   0.444E-03
  16 F= -.23260470E+04 E0= -.23260470E+04  d E =-.822685E-02  mag=     3.0000
       N       E                     dE             d eps       ncg     rms          rms(c)
DAV:   1    -0.230566255289E+04    0.50950E-04   -0.12928E-02  5080   0.109E-01    0.446E-02
RMM:   2    -0.230566264576E+04   -0.92877E-04   -0.86102E-04  5565   0.221E-02    0.593E-02
RMM:   3    -0.230566263744E+04    0.83215E-05   -0.87005E-05  2910   0.926E-03
  17 F= -.23260471E+04 E0= -.23260471E+04  d E =-.832817E-02  mag=     3.0000
       N       E                     dE             d eps       ncg     rms          rms(c)
DAV:   1    -0.230566351304E+04   -0.86727E-03   -0.40505E-01  4432   0.582E-01    0.210E-01
RMM:   2    -0.230566631068E+04   -0.27976E-02   -0.30785E-02  5824   0.114E-01    0.171E-01
RMM:   3    -0.230566655783E+04   -0.24716E-03   -0.24689E-03  5237   0.337E-02    0.242E-01
RMM:   4    -0.230566616764E+04    0.39019E-03   -0.42833E-04  4460   0.120E-02    0.582E-02
RMM:   5    -0.230566612829E+04    0.39350E-04   -0.15418E-04  4006   0.981E-03    0.226E-02
RMM:   6    -0.230566612585E+04    0.24400E-05   -0.22684E-05  2868   0.632E-03
  18 F= -.23260506E+04 E0= -.23260506E+04  d E =-.347367E-02  mag=     3.0000
       N       E                     dE             d eps       ncg     rms          rms(c)
DAV:   1    -0.230566588400E+04    0.24429E-03   -0.73519E-02  4576   0.248E-01    0.914E-02
RMM:   2    -0.230566641072E+04   -0.52672E-03   -0.56486E-03  6031   0.505E-02    0.859E-02
RMM:   3    -0.230566644678E+04   -0.36057E-04   -0.45583E-04  3576   0.157E-02    0.107E-01
RMM:   4    -0.230566637039E+04    0.76392E-04   -0.77076E-05  2904   0.633E-03    0.246E-02
RMM:   5    -0.230566636227E+04    0.81150E-05   -0.35005E-05  2954   0.538E-03
  19 F= -.23260508E+04 E0= -.23260508E+04  d E =-.370341E-02  mag=     3.0000
       N       E                     dE             d eps       ncg     rms          rms(c)
DAV:   1    -0.230566491564E+04    0.14547E-02   -0.45277E-01  4432   0.679E-01    0.226E-01
RMM:   2    -0.230566854754E+04   -0.36319E-02   -0.36941E-02  5883   0.134E-01    0.274E-01
RMM:   3    -0.230566853569E+04    0.11854E-04   -0.33361E-03  5312   0.442E-02    0.248E-01
RMM:   4    -0.230566812021E+04    0.41548E-03   -0.52729E-04  4682   0.133E-02    0.509E-02
RMM:   5    -0.230566807565E+04    0.44559E-04   -0.14493E-04  4090   0.104E-02    0.294E-02
RMM:   6    -0.230566806877E+04    0.68785E-05   -0.38932E-05  3146   0.718E-03
  20 F= -.23260524E+04 E0= -.23260524E+04  d E =-.161229E-02  mag=     3.0000
       N       E                     dE             d eps       ncg     rms          rms(c)
DAV:   1    -0.230566806677E+04    0.88809E-05   -0.98978E-04  5280   0.319E-02    0.110E-02
RMM:   2    -0.230566807421E+04   -0.74425E-05   -0.76940E-05  3394   0.719E-03
  21 F= -.23260524E+04 E0= -.23260524E+04  d E =-.162199E-02  mag=     3.0000
       N       E                     dE             d eps       ncg     rms          rms(c)
DAV:   1    -0.230566705891E+04    0.10079E-02   -0.22612E-01  4432   0.499E-01    0.155E-01
RMM:   2    -0.230567002381E+04   -0.29649E-02   -0.25664E-02  5971   0.101E-01    0.318E-01
RMM:   3    -0.230566947232E+04    0.55149E-03   -0.21544E-03  4571   0.341E-02    0.913E-02
RMM:   4    -0.230566943166E+04    0.40657E-04   -0.26007E-04  3634   0.879E-03    0.426E-02
RMM:   5    -0.230566941390E+04    0.17763E-04   -0.55257E-05  3337   0.723E-03    0.426E-02
RMM:   6    -0.230566940087E+04    0.13032E-04   -0.34505E-05  2901   0.645E-03    0.565E-03
RMM:   7    -0.230566940105E+04   -0.18190E-06   -0.61668E-06  2806   0.424E-03
  22 F= -.23260535E+04 E0= -.23260535E+04  d E =-.106495E-02  mag=     3.0000
       N       E                     dE             d eps       ncg     rms          rms(c)
DAV:   1    -0.230566876941E+04    0.63146E-03   -0.79871E-02  4432   0.297E-01    0.954E-02
RMM:   2    -0.230566989412E+04   -0.11247E-02   -0.92635E-03  5876   0.605E-02    0.216E-01
RMM:   3    -0.230566962082E+04    0.27330E-03   -0.78742E-04  3803   0.215E-02    0.487E-02
RMM:   4    -0.230566961095E+04    0.98691E-05   -0.10001E-04  2922   0.573E-03    0.268E-02
RMM:   5    -0.230566960525E+04    0.57079E-05   -0.22313E-05  2861   0.469E-03
  23 F= -.23260536E+04 E0= -.23260536E+04  d E =-.111331E-02  mag=     3.0000
       N       E                     dE             d eps       ncg     rms          rms(c)
DAV:   1    -0.230566925729E+04    0.35366E-03   -0.12813E-01  4400   0.375E-01    0.108E-01
RMM:   2    -0.230567094112E+04   -0.16838E-02   -0.14042E-02  6099   0.743E-02    0.254E-01
RMM:   3    -0.230567056421E+04    0.37690E-03   -0.11526E-03  3850   0.235E-02    0.520E-02
RMM:   4    -0.230567055377E+04    0.10439E-04   -0.15373E-04  2960   0.657E-03    0.299E-02
RMM:   5    -0.230567054862E+04    0.51524E-05   -0.29895E-05  2892   0.501E-03
  24 F= -.23260543E+04 E0= -.23260543E+04  d E =-.690338E-03  mag=     3.0000
       N       E                     dE             d eps       ncg     rms          rms(c)
DAV:   1    -0.230566693798E+04    0.36158E-02   -0.45094E-01  4396   0.704E-01    0.203E-01
RMM:   2    -0.230567289400E+04   -0.59560E-02   -0.49554E-02  5939   0.137E-01    0.477E-01
RMM:   3    -0.230567155313E+04    0.13409E-02   -0.41928E-03  4957   0.457E-02    0.958E-02
RMM:   4    -0.230567151462E+04    0.38513E-04   -0.55817E-04  3928   0.108E-02    0.579E-02
RMM:   5    -0.230567149548E+04    0.19140E-04   -0.95941E-05  3475   0.817E-03    0.696E-02
RMM:   6    -0.230567146178E+04    0.33702E-04   -0.81040E-05  3335   0.784E-03    0.872E-03
RMM:   7    -0.230567146192E+04   -0.14581E-06   -0.99163E-06  2837   0.472E-03
  25 F= -.23260547E+04 E0= -.23260547E+04  d E =-.112926E-02  mag=     3.0000
       N       E                     dE             d eps       ncg     rms          rms(c)
DAV:   1    -0.230567184970E+04   -0.38792E-03   -0.12557E-01  4416   0.369E-01    0.103E-01
RMM:   2    -0.230567279459E+04   -0.94489E-03   -0.83167E-03  5673   0.675E-02    0.185E-01
RMM:   3    -0.230567261190E+04    0.18268E-03   -0.62380E-04  4122   0.232E-02    0.764E-02
RMM:   4    -0.230567256626E+04    0.45649E-04   -0.82824E-05  3193   0.705E-03    0.266E-02
RMM:   5    -0.230567255897E+04    0.72802E-05   -0.43242E-05  3366   0.668E-03
  26 F= -.23260557E+04 E0= -.23260557E+04  d E =-.968066E-03  mag=     3.0000
       N       E                     dE             d eps       ncg     rms          rms(c)
DAV:   1    -0.230567232422E+04    0.24203E-03   -0.10642E-01  4464   0.340E-01    0.953E-02
RMM:   2    -0.230567310670E+04   -0.78248E-03   -0.70167E-03  5965   0.634E-02    0.162E-01
RMM:   3    -0.230567297889E+04    0.12781E-03   -0.54325E-04  3919   0.214E-02    0.755E-02
RMM:   4    -0.230567293403E+04    0.44857E-04   -0.68083E-05  3033   0.687E-03    0.247E-02
RMM:   5    -0.230567292696E+04    0.70721E-05   -0.42261E-05  3431   0.662E-03
  27 F= -.23260559E+04 E0= -.23260559E+04  d E =-.121706E-02  mag=     3.0000
       N       E                     dE             d eps       ncg     rms          rms(c)
DAV:   1    -0.230567282690E+04    0.10713E-03   -0.16437E-01  4400   0.415E-01    0.112E-01
RMM:   2    -0.230567395509E+04   -0.11282E-02   -0.11397E-02  6046   0.753E-02    0.124E-01
RMM:   3    -0.230567398412E+04   -0.29029E-04   -0.91512E-04  4335   0.257E-02    0.123E-01
RMM:   4    -0.230567388123E+04    0.10289E-03   -0.12114E-04  3050   0.778E-03    0.311E-02
RMM:   5    -0.230567386834E+04    0.12886E-04   -0.56814E-05  3256   0.639E-03    0.137E-02
RMM:   6    -0.230567386833E+04    0.14930E-07   -0.10323E-05  2837   0.498E-03
  28 F= -.23260568E+04 E0= -.23260568E+04  d E =-.886391E-03  mag=     3.0000
       N       E                     dE             d eps       ncg     rms          rms(c)
DAV:   1    -0.230567270339E+04    0.11650E-02   -0.24653E-01  4396   0.508E-01    0.137E-01
RMM:   2    -0.230567442089E+04   -0.17175E-02   -0.17176E-02  5715   0.905E-02    0.161E-01
RMM:   3    -0.230567443326E+04   -0.12374E-04   -0.13555E-03  4754   0.304E-02    0.148E-01
RMM:   4    -0.230567428557E+04    0.14769E-03   -0.18160E-04  3357   0.859E-03    0.373E-02
RMM:   5    -0.230567426614E+04    0.19426E-04   -0.78708E-05  3551   0.716E-03    0.178E-02
RMM:   6    -0.230567426539E+04    0.75629E-06   -0.13362E-05  2848   0.541E-03
  29 F= -.23260571E+04 E0= -.23260571E+04  d E =-.121657E-02  mag=     3.0000
       N       E                     dE             d eps       ncg     rms          rms(c)
DAV:   1    -0.230567447394E+04   -0.20779E-03   -0.11091E-01  4416   0.339E-01    0.894E-02
RMM:   2    -0.230567517849E+04   -0.70455E-03   -0.70218E-03  5792   0.612E-02    0.111E-01
RMM:   3    -0.230567516686E+04    0.11625E-04   -0.58361E-04  4032   0.216E-02    0.903E-02
RMM:   4    -0.230567510985E+04    0.57011E-04   -0.76227E-05  2955   0.643E-03    0.258E-02
RMM:   5    -0.230567510075E+04    0.90956E-05   -0.41154E-05  3102   0.564E-03
  30 F= -.23260579E+04 E0= -.23260579E+04  d E =-.797267E-03  mag=     3.0000
       N       E                     dE             d eps       ncg     rms          rms(c)
DAV:   1    -0.230567384487E+04    0.12650E-02   -0.32380E-01  4392   0.580E-01    0.151E-01
RMM:   2    -0.230567581762E+04   -0.19728E-02   -0.20229E-02  5894   0.105E-01    0.162E-01
RMM:   3    -0.230567588983E+04   -0.72205E-04   -0.17172E-03  4961   0.372E-02    0.167E-01
RMM:   4    -0.230567570099E+04    0.18884E-03   -0.23053E-04  3757   0.102E-02    0.461E-02
RMM:   5    -0.230567567306E+04    0.27926E-04   -0.12063E-04  3958   0.891E-03    0.183E-02
RMM:   6    -0.230567567272E+04    0.34578E-06   -0.17967E-05  2867   0.613E-03
  31 F= -.23260584E+04 E0= -.23260584E+04  d E =-.130481E-02  mag=     3.0000
       N       E                     dE             d eps       ncg     rms          rms(c)
DAV:   1    -0.230567602852E+04   -0.35545E-03   -0.14100E-01  4416   0.381E-01    0.107E-01
RMM:   2    -0.230567685894E+04   -0.83043E-03   -0.76327E-03  5795   0.679E-02    0.159E-01
RMM:   3    -0.230567673800E+04    0.12094E-03   -0.56249E-04  4038   0.220E-02    0.854E-02
RMM:   4    -0.230567668537E+04    0.52636E-04   -0.80362E-05  3128   0.693E-03    0.272E-02
RMM:   5    -0.230567667713E+04    0.82433E-05   -0.40371E-05  3206   0.616E-03
  32 F= -.23260593E+04 E0= -.23260593E+04  d E =-.915327E-03  mag=     3.0000
       N       E                     dE             d eps       ncg     rms          rms(c)
DAV:   1    -0.230567608855E+04    0.59681E-03   -0.23746E-01  4396   0.494E-01    0.138E-01
RMM:   2    -0.230567744443E+04   -0.13559E-02   -0.12772E-02  5923   0.885E-02    0.190E-01
RMM:   3    -0.230567730053E+04    0.14390E-03   -0.96855E-04  4459   0.297E-02    0.119E-01
RMM:   4    -0.230567719908E+04    0.10145E-03   -0.13156E-04  3649   0.880E-03    0.348E-02
RMM:   5    -0.230567718349E+04    0.15589E-04   -0.68602E-05  3690   0.779E-03    0.188E-02
RMM:   6    -0.230567718276E+04    0.72669E-06   -0.12173E-05  2834   0.536E-03
  33 F= -.23260597E+04 E0= -.23260597E+04  d E =-.130572E-02  mag=     3.0000
       N       E                     dE             d eps       ncg     rms          rms(c)
DAV:   1    -0.230567725682E+04   -0.73328E-04   -0.14516E-01  4412   0.382E-01    0.110E-01
RMM:   2    -0.230567850298E+04   -0.12462E-02   -0.10986E-02  5874   0.721E-02    0.204E-01
RMM:   3    -0.230567826564E+04    0.23734E-03   -0.80033E-04  4008   0.223E-02    0.662E-02
RMM:   4    -0.230567823863E+04    0.27015E-04   -0.11603E-04  3025   0.666E-03    0.309E-02
RMM:   5    -0.230567823146E+04    0.71673E-05   -0.40842E-05  3198   0.601E-03
  34 F= -.23260606E+04 E0= -.23260606E+04  d E =-.887885E-03  mag=     3.0000
       N       E                     dE             d eps       ncg     rms          rms(c)
DAV:   1    -0.230567667718E+04    0.15614E-02   -0.33508E-01  4396   0.580E-01    0.168E-01
RMM:   2    -0.230567956953E+04   -0.28923E-02   -0.25408E-02  5962   0.110E-01    0.315E-01
RMM:   3    -0.230567899402E+04    0.57550E-03   -0.17587E-03  4797   0.346E-02    0.999E-02
RMM:   4    -0.230567892670E+04    0.67322E-04   -0.25483E-04  3854   0.955E-03    0.460E-02
RMM:   5    -0.230567890670E+04    0.20007E-04   -0.87307E-05  3891   0.859E-03    0.432E-02
RMM:   6    -0.230567889473E+04    0.11964E-04   -0.26489E-05  2866   0.612E-03    0.602E-03
RMM:   7    -0.230567889440E+04    0.32867E-06   -0.52035E-06  2811   0.330E-03
  35 F= -.23260610E+04 E0= -.23260610E+04  d E =-.130705E-02  mag=     3.0000
       N       E                     dE             d eps       ncg     rms          rms(c)
DAV:   1    -0.230567864879E+04    0.24594E-03   -0.16102E-01  4432   0.396E-01    0.126E-01
RMM:   2    -0.230568035941E+04   -0.17106E-02   -0.14353E-02  5910   0.769E-02    0.261E-01
RMM:   3    -0.230567995183E+04    0.40758E-03   -0.11613E-03  4305   0.244E-02    0.719E-02
RMM:   4    -0.230567991912E+04    0.32704E-04   -0.15105E-04  3061   0.692E-03    0.334E-02
RMM:   5    -0.230567991426E+04    0.48681E-05   -0.44041E-05  3096   0.588E-03
  36 F= -.23260619E+04 E0= -.23260619E+04  d E =-.865293E-03  mag=     3.0000
       N       E                     dE             d eps       ncg     rms          rms(c)
DAV:   1    -0.230567407002E+04    0.58491E-02   -0.88691E-01  4392   0.929E-01    0.294E-01
RMM:   2    -0.230568328484E+04   -0.92148E-02   -0.78128E-02  5928   0.179E-01    0.588E-01
RMM:   3    -0.230568124935E+04    0.20355E-02   -0.65456E-03  5386   0.580E-02    0.173E-01
RMM:   4    -0.230568104446E+04    0.20489E-03   -0.82175E-04  4445   0.150E-02    0.755E-02
RMM:   5    -0.230568100997E+04    0.34493E-04   -0.22670E-04  4426   0.124E-02    0.810E-02
RMM:   6    -0.230568096897E+04    0.40996E-04   -0.77559E-05  3242   0.812E-03    0.977E-03
RMM:   7    -0.230568096822E+04    0.75661E-06   -0.10108E-05  2846   0.442E-03
  37 F= -.23260626E+04 E0= -.23260626E+04  d E =-.155744E-02  mag=     3.0000
       N       E                     dE             d eps       ncg     rms          rms(c)
DAV:   1    -0.230568060864E+04    0.36034E-03   -0.14454E-01  4464   0.359E-01    0.121E-01
RMM:   2    -0.230568240036E+04   -0.17917E-02   -0.14696E-02  5970   0.727E-02    0.274E-01
RMM:   3    -0.230568194851E+04    0.45185E-03   -0.11564E-03  4215   0.225E-02    0.628E-02
RMM:   4    -0.230568192966E+04    0.18844E-04   -0.16063E-04  2968   0.654E-03    0.320E-02
RMM:   5    -0.230568192613E+04    0.35380E-05   -0.37075E-05  2968   0.502E-03
  38 F= -.23260635E+04 E0= -.23260635E+04  d E =-.888261E-03  mag=     3.0000
       N       E                     dE             d eps       ncg     rms          rms(c)
DAV:   1    -0.230567177766E+04    0.10152E-01   -0.12969E+00  4392   0.108E+00    0.358E-01
RMM:   2    -0.230568742541E+04   -0.15648E-01   -0.13030E-01  6024   0.215E-01    0.780E-01
RMM:   3    -0.230568377490E+04    0.36505E-02   -0.10699E-02  5633   0.631E-02    0.194E-01
RMM:   4    -0.230568355431E+04    0.22059E-03   -0.13382E-03  4558   0.168E-02    0.923E-02
RMM:   5    -0.230568352824E+04    0.26066E-04   -0.31027E-04  4499   0.132E-02    0.112E-01
RMM:   6    -0.230568345163E+04    0.76611E-04   -0.14730E-04  3468   0.956E-03    0.135E-02
RMM:   7    -0.230568345067E+04    0.96011E-06   -0.17208E-05  2852   0.447E-03
  39 F= -.23260648E+04 E0= -.23260648E+04  d E =-.220666E-02  mag=     3.0000
       N       E                     dE             d eps       ncg     rms          rms(c)
DAV:   1    -0.230568359547E+04   -0.14383E-03   -0.12630E-01  4448   0.339E-01    0.126E-01
RMM:   2    -0.230568496937E+04   -0.13739E-02   -0.10975E-02  5898   0.701E-02    0.265E-01
RMM:   3    -0.230568454363E+04    0.42573E-03   -0.85962E-04  4264   0.221E-02    0.713E-02
RMM:   4    -0.230568450490E+04    0.38737E-04   -0.11690E-04  3145   0.710E-03    0.285E-02
RMM:   5    -0.230568449692E+04    0.79820E-05   -0.39472E-05  3143   0.604E-03
  40 F= -.23260658E+04 E0= -.23260658E+04  d E =-.101726E-02  mag=     3.0000
       N       E                     dE             d eps       ncg     rms          rms(c)
DAV:   1    -0.230568339888E+04    0.11060E-02   -0.22070E-01  4396   0.449E-01    0.165E-01
RMM:   2    -0.230568568359E+04   -0.22847E-02   -0.18547E-02  6069   0.928E-02    0.333E-01
RMM:   3    -0.230568505087E+04    0.63272E-03   -0.15612E-03  4889   0.304E-02    0.965E-02
RMM:   4    -0.230568497521E+04    0.75657E-04   -0.20448E-04  3840   0.913E-03    0.368E-02
RMM:   5    -0.230568495920E+04    0.16012E-04   -0.61599E-05  3560   0.763E-03    0.335E-02
RMM:   6    -0.230568495115E+04    0.80505E-05   -0.22076E-05  2842   0.583E-03
  41 F= -.23260662E+04 E0= -.23260662E+04  d E =-.143336E-02  mag=     3.0000
       N       E                     dE             d eps       ncg     rms          rms(c)
DAV:   1    -0.230568435860E+04    0.60060E-03   -0.18378E-01  4396   0.389E-01    0.144E-01
RMM:   2    -0.230568664940E+04   -0.22908E-02   -0.17259E-02  6148   0.834E-02    0.360E-01
RMM:   3    -0.230568584662E+04    0.80278E-03   -0.13236E-03  4462   0.226E-02    0.619E-02
RMM:   4    -0.230568582140E+04    0.25219E-04   -0.18059E-04  3115   0.741E-03    0.347E-02
RMM:   5    -0.230568581419E+04    0.72139E-05   -0.45773E-05  3165   0.603E-03
  42 F= -.23260670E+04 E0= -.23260670E+04  d E =-.802452E-03  mag=     3.0000
       N       E                     dE             d eps       ncg     rms          rms(c)
DAV:   1    -0.230568376948E+04    0.20519E-02   -0.31237E-01  4396   0.507E-01    0.186E-01
RMM:   2    -0.230568754656E+04   -0.37771E-02   -0.28910E-02  6158   0.107E-01    0.456E-01
RMM:   3    -0.230568628237E+04    0.12642E-02   -0.21798E-03  5044   0.313E-02    0.825E-02
RMM:   4    -0.230568623735E+04    0.45015E-04   -0.29412E-04  3645   0.931E-03    0.444E-02
RMM:   5    -0.230568622335E+04    0.13999E-04   -0.75370E-05  3582   0.766E-03    0.468E-02
RMM:   6    -0.230568620915E+04    0.14198E-04   -0.31307E-05  2865   0.615E-03    0.605E-03
RMM:   7    -0.230568620894E+04    0.21688E-06   -0.62898E-06  2816   0.343E-03
  43 F= -.23260674E+04 E0= -.23260674E+04  d E =-.111908E-02  mag=     3.0000
       N       E                     dE             d eps       ncg     rms          rms(c)
DAV:   1    -0.230568534399E+04    0.86516E-03   -0.22055E-01  4396   0.423E-01    0.161E-01
RMM:   2    -0.230568853086E+04   -0.31869E-02   -0.23505E-02  6037   0.930E-02    0.435E-01
RMM:   3    -0.230568734546E+04    0.11854E-02   -0.16541E-03  4691   0.262E-02    0.655E-02
RMM:   4    -0.230568732801E+04    0.17445E-04   -0.26491E-04  3212   0.807E-03    0.405E-02
RMM:   5    -0.230568732181E+04    0.62028E-05   -0.53813E-05  3216   0.644E-03
  44 F= -.23260684E+04 E0= -.23260684E+04  d E =-.100867E-02  mag=     3.0000
       N       E                     dE             d eps       ncg     rms          rms(c)
DAV:   1    -0.230568469900E+04    0.26290E-02   -0.35468E-01  4392   0.536E-01    0.204E-01
RMM:   2    -0.230568970894E+04   -0.50099E-02   -0.37034E-02  6199   0.117E-01    0.538E-01
RMM:   3    -0.230568790533E+04    0.18036E-02   -0.27315E-03  5176   0.343E-02    0.837E-02
RMM:   4    -0.230568787652E+04    0.28811E-04   -0.41284E-04  3749   0.101E-02    0.512E-02
RMM:   5    -0.230568786667E+04    0.98457E-05   -0.85842E-05  3645   0.800E-03
  45 F= -.23260688E+04 E0= -.23260688E+04  d E =-.142246E-02  mag=     3.0000
       N       E                     dE             d eps       ncg     rms          rms(c)
DAV:   1    -0.230568628803E+04    0.15885E-02   -0.30957E-01  4392   0.527E-01    0.200E-01
RMM:   2    -0.230569030745E+04   -0.40194E-02   -0.30701E-02  6029   0.111E-01    0.476E-01
RMM:   3    -0.230568892378E+04    0.13837E-02   -0.23904E-03  5048   0.359E-02    0.937E-02
RMM:   4    -0.230568886460E+04    0.59183E-04   -0.35269E-04  4003   0.101E-02    0.493E-02
RMM:   5    -0.230568885358E+04    0.11015E-04   -0.82373E-05  3724   0.825E-03    0.545E-02
RMM:   6    -0.230568883514E+04    0.18443E-04   -0.38170E-05  2862   0.644E-03    0.708E-03
RMM:   7    -0.230568883507E+04    0.69122E-07   -0.72049E-06  2823   0.392E-03
  46 F= -.23260697E+04 E0= -.23260697E+04  d E =-.918637E-03  mag=     3.0000
       N       E                     dE             d eps       ncg     rms          rms(c)
DAV:   1    -0.230568848121E+04    0.35393E-03   -0.53048E-02  4576   0.218E-01    0.830E-02
RMM:   2    -0.230568919678E+04   -0.71557E-03   -0.54127E-03  5951   0.466E-02    0.205E-01
RMM:   3    -0.230568893869E+04    0.25808E-03   -0.40231E-04  3429   0.149E-02    0.378E-02
RMM:   4    -0.230568893113E+04    0.75673E-05   -0.65511E-05  2890   0.485E-03
  47 F= -.23260698E+04 E0= -.23260698E+04  d E =-.994335E-03  mag=     3.0000
       N       E                     dE             d eps       ncg     rms          rms(c)
DAV:   1    -0.230568801124E+04    0.92745E-03   -0.16250E-01  4400   0.395E-01    0.137E-01
RMM:   2    -0.230568994974E+04   -0.19385E-02   -0.17639E-02  5827   0.815E-02    0.245E-01
RMM:   3    -0.230568965474E+04    0.29499E-03   -0.13754E-03  4268   0.265E-02    0.965E-02
RMM:   4    -0.230568960238E+04    0.52357E-04   -0.19193E-04  3300   0.769E-03    0.390E-02
RMM:   5    -0.230568959204E+04    0.10340E-04   -0.57743E-05  3359   0.662E-03    0.389E-02
RMM:   6    -0.230568958397E+04    0.80692E-05   -0.21806E-05  2840   0.550E-03
  48 F= -.23260704E+04 E0= -.23260704E+04  d E =-.641939E-03  mag=     3.0000
       N       E                     dE             d eps       ncg     rms          rms(c)
DAV:   1    -0.230568907618E+04    0.51587E-03   -0.60444E-02  4432   0.241E-01    0.900E-02
RMM:   2    -0.230568994155E+04   -0.86538E-03   -0.69201E-03  5908   0.518E-02    0.209E-01
RMM:   3    -0.230568968245E+04    0.25910E-03   -0.51899E-04  3546   0.165E-02    0.471E-02
RMM:   4    -0.230568967029E+04    0.12156E-04   -0.76702E-05  2906   0.530E-03    0.244E-02
RMM:   5    -0.230568966722E+04    0.30716E-05   -0.23292E-05  2880   0.440E-03
  49 F= -.23260705E+04 E0= -.23260705E+04  d E =-.718695E-03  mag=     3.0000
       N       E                     dE             d eps       ncg     rms          rms(c)
DAV:   1    -0.230568902614E+04    0.64415E-03   -0.13209E-01  4396   0.361E-01    0.128E-01
RMM:   2    -0.230569079625E+04   -0.17701E-02   -0.14483E-02  6049   0.747E-02    0.285E-01
RMM:   3    -0.230569033804E+04    0.45820E-03   -0.11731E-03  4199   0.239E-02    0.695E-02
RMM:   4    -0.230569031594E+04    0.22106E-04   -0.16161E-04  3002   0.705E-03    0.351E-02
RMM:   5    -0.230569031171E+04    0.42263E-05   -0.41533E-05  3053   0.572E-03
  50 F= -.23260711E+04 E0= -.23260711E+04  d E =-.610372E-03  mag=     3.0000
       N       E                     dE             d eps       ncg     rms          rms(c)
DAV:   1    -0.230568835499E+04    0.19609E-02   -0.23310E-01  4392   0.480E-01    0.172E-01
RMM:   2    -0.230569153687E+04   -0.31819E-02   -0.25620E-02  6073   0.986E-02    0.389E-01
RMM:   3    -0.230569066661E+04    0.87026E-03   -0.20996E-03  4865   0.326E-02    0.900E-02
RMM:   4    -0.230569063007E+04    0.36540E-04   -0.28787E-04  3452   0.883E-03    0.468E-02
RMM:   5    -0.230569062307E+04    0.69987E-05   -0.70601E-05  3396   0.727E-03
  51 F= -.23260714E+04 E0= -.23260714E+04  d E =-.876375E-03  mag=     3.0000
       N       E                     dE             d eps       ncg     rms          rms(c)
DAV:   1    -0.230569011218E+04    0.51790E-03   -0.13072E-01  4400   0.358E-01    0.122E-01
RMM:   2    -0.230569169878E+04   -0.15866E-02   -0.13906E-02  6162   0.727E-02    0.241E-01
RMM:   3    -0.230569141853E+04    0.28025E-03   -0.12655E-03  4125   0.254E-02    0.801E-02
RMM:   4    -0.230569138375E+04    0.34778E-04   -0.15470E-04  3041   0.727E-03    0.341E-02
RMM:   5    -0.230569137728E+04    0.64693E-05   -0.41594E-05  3113   0.591E-03
  52 F= -.23260721E+04 E0= -.23260721E+04  d E =-.722754E-03  mag=     3.0000
       N       E                     dE             d eps       ncg     rms          rms(c)
DAV:   1    -0.230568894579E+04    0.24380E-02   -0.29020E-01  4392   0.534E-01    0.181E-01
RMM:   2    -0.230569248915E+04   -0.35434E-02   -0.30920E-02  6067   0.108E-01    0.361E-01
RMM:   3    -0.230569184393E+04    0.64521E-03   -0.28059E-03  5102   0.382E-02    0.114E-01
RMM:   4    -0.230569177714E+04    0.66793E-04   -0.35312E-04  3830   0.979E-03    0.511E-02
RMM:   5    -0.230569175983E+04    0.17310E-04   -0.85850E-05  3724   0.801E-03    0.535E-02
RMM:   6    -0.230569174151E+04    0.18325E-04   -0.45844E-05  2912   0.657E-03    0.131E-02
RMM:   7    -0.230569173987E+04    0.16407E-05   -0.79059E-06  2820   0.419E-03
  53 F= -.23260724E+04 E0= -.23260724E+04  d E =-.103850E-02  mag=     3.0000
       N       E                     dE             d eps       ncg     rms          rms(c)
DAV:   1    -0.230569122235E+04    0.51916E-03   -0.11614E-01  4464   0.332E-01    0.107E-01
RMM:   2    -0.230569257218E+04   -0.13498E-02   -0.12510E-02  5968   0.655E-02    0.197E-01
RMM:   3    -0.230569241604E+04    0.15614E-03   -0.11053E-03  3984   0.229E-02    0.778E-02
RMM:   4    -0.230569238830E+04    0.27742E-04   -0.13498E-04  2967   0.639E-03    0.323E-02
RMM:   5    -0.230569238246E+04    0.58381E-05   -0.33266E-05  2949   0.506E-03
  54 F= -.23260731E+04 E0= -.23260731E+04  d E =-.661169E-03  mag=     3.0000
       N       E                     dE             d eps       ncg     rms          rms(c)
DAV:   1    -0.230568298843E+04    0.93999E-02   -0.10117E+00  4408   0.979E-01    0.316E-01
RMM:   2    -0.230569468604E+04   -0.11698E-01   -0.10898E-01  5987   0.193E-01    0.566E-01
RMM:   3    -0.230569340367E+04    0.12824E-02   -0.94348E-03  5567   0.646E-02    0.232E-01
RMM:   4    -0.230569314419E+04    0.25948E-03   -0.11474E-03  4654   0.163E-02    0.922E-02
RMM:   5    -0.230569309168E+04    0.52509E-04   -0.26402E-04  4414   0.129E-02    0.830E-02
RMM:   6    -0.230569305852E+04    0.33158E-04   -0.11186E-04  3689   0.903E-03    0.214E-02
RMM:   7    -0.230569305612E+04    0.24049E-05   -0.14451E-05  2841   0.483E-03
  55 F= -.23260738E+04 E0= -.23260738E+04  d E =-.138953E-02  mag=     3.0000
       N       E                     dE             d eps       ncg     rms          rms(c)
DAV:   1    -0.230569250076E+04    0.55776E-03   -0.13055E-01  4528   0.341E-01    0.107E-01
RMM:   2    -0.230569399749E+04   -0.14967E-02   -0.14359E-02  5893   0.669E-02    0.187E-01
RMM:   3    -0.230569389097E+04    0.10652E-03   -0.13065E-03  3911   0.231E-02    0.851E-02
RMM:   4    -0.230569386110E+04    0.29871E-04   -0.15500E-04  2982   0.642E-03    0.351E-02
RMM:   5    -0.230569385318E+04    0.79185E-05   -0.38665E-05  2961   0.502E-03
  56 F= -.23260746E+04 E0= -.23260746E+04  d E =-.843723E-03  mag=     3.0000
       N       E                     dE             d eps       ncg     rms          rms(c)
DAV:   1    -0.230568318064E+04    0.10680E-01   -0.11702E+00  4392   0.102E+00    0.322E-01
RMM:   2    -0.230569668693E+04   -0.13506E-01   -0.12931E-01  5967   0.200E-01    0.562E-01
RMM:   3    -0.230569560696E+04    0.10800E-02   -0.11613E-02  5559   0.659E-02    0.248E-01
RMM:   4    -0.230569534046E+04    0.26650E-03   -0.13776E-03  4639   0.165E-02    0.101E-01
RMM:   5    -0.230569526672E+04    0.73743E-04   -0.30597E-04  4389   0.130E-02    0.812E-02
RMM:   6    -0.230569523845E+04    0.28273E-04   -0.11945E-04  3660   0.931E-03    0.232E-02
RMM:   7    -0.230569523486E+04    0.35902E-05   -0.16881E-05  2843   0.483E-03
  57 F= -.23260762E+04 E0= -.23260762E+04  d E =-.236506E-02  mag=     3.0000
       N       E                     dE             d eps       ncg     rms          rms(c)
DAV:   1    -0.230564510100E+04    0.50137E-01   -0.46929E+00  4392   0.204E+00    0.649E-01
RMM:   2    -0.230570039308E+04   -0.55292E-01   -0.52197E-01  5865   0.404E-01    0.117E+00
RMM:   3    -0.230569478472E+04    0.56084E-02   -0.47739E-02  5602   0.132E-01    0.462E-01
RMM:   4    -0.230569391169E+04    0.87302E-03   -0.56450E-03  4804   0.322E-02    0.202E-01
RMM:   5    -0.230569365619E+04    0.25551E-03   -0.12482E-03  5126   0.252E-02    0.183E-01
RMM:   6    -0.230569349002E+04    0.16617E-03   -0.55601E-04  4948   0.164E-02    0.562E-02
RMM:   7    -0.230569346640E+04    0.23621E-04   -0.54813E-05  2994   0.655E-03    0.230E-02
RMM:   8    -0.230569346316E+04    0.32407E-05   -0.20493E-05  2843   0.414E-03
  58 F= -.23260747E+04 E0= -.23260747E+04  d E =-.872058E-03  mag=     3.0000
       N       E                     dE             d eps       ncg     rms          rms(c)
DAV:   1    -0.230566895416E+04    0.24512E-01   -0.25700E+00  4392   0.151E+00    0.461E-01
RMM:   2    -0.230569689106E+04   -0.27937E-01   -0.27901E-01  5858   0.291E-01    0.719E-01
RMM:   3    -0.230569661221E+04    0.27885E-03   -0.25263E-02  5491   0.950E-02    0.448E-01
RMM:   4    -0.230569558770E+04    0.10245E-02   -0.28923E-03  5007   0.245E-02    0.151E-01
RMM:   5    -0.230569537045E+04    0.21725E-03   -0.72636E-04  4959   0.188E-02    0.869E-02
RMM:   6    -0.230569534990E+04    0.20553E-04   -0.19939E-04  4353   0.117E-02    0.276E-02
RMM:   7    -0.230569534477E+04    0.51293E-05   -0.32053E-05  2869   0.522E-03
  59 F= -.23260763E+04 E0= -.23260763E+04  d E =-.254743E-02  mag=     3.0000
       N       E                     dE             d eps       ncg     rms          rms(c)
DAV:   1    -0.230569442448E+04    0.92542E-03   -0.17823E-01  4400   0.388E-01    0.119E-01
RMM:   2    -0.230569649211E+04   -0.20676E-02   -0.20624E-02  5975   0.758E-02    0.189E-01
RMM:   3    -0.230569645487E+04    0.37248E-04   -0.18888E-03  4134   0.261E-02    0.107E-01
RMM:   4    -0.230569640069E+04    0.54180E-04   -0.20772E-04  3027   0.701E-03    0.377E-02
RMM:   5    -0.230569638544E+04    0.15244E-04   -0.49076E-05  3007   0.525E-03    0.230E-02
RMM:   6    -0.230569638427E+04    0.11716E-05   -0.15599E-05  2835   0.468E-03
  60 F= -.23260774E+04 E0= -.23260774E+04  d E =-.104652E-02  mag=     3.0000
       N       E                     dE             d eps       ncg     rms          rms(c)
DAV:   1    -0.230568087350E+04    0.15512E-01   -0.16055E+00  4424   0.117E+00    0.375E-01
RMM:   2    -0.230570081503E+04   -0.19942E-01   -0.19012E-01  5863   0.230E-01    0.683E-01
RMM:   3    -0.230569917764E+04    0.16374E-02   -0.17469E-02  5518   0.735E-02    0.282E-01
RMM:   4    -0.230569888125E+04    0.29639E-03   -0.20373E-03  4663   0.178E-02    0.122E-01
RMM:   5    -0.230569879259E+04    0.88661E-04   -0.40720E-04  4426   0.137E-02    0.104E-01
RMM:   6    -0.230569874647E+04    0.46118E-04   -0.18263E-04  3883   0.103E-02    0.308E-02
RMM:   7    -0.230569874109E+04    0.53822E-05   -0.20656E-05  2850   0.492E-03
  61 F= -.23260798E+04 E0= -.23260798E+04  d E =-.342362E-02  mag=     3.0000
       N       E                     dE             d eps       ncg     rms          rms(c)
DAV:   1    -0.230562845280E+04    0.70294E-01   -0.64287E+00  4424   0.233E+00    0.770E-01
RMM:   2    -0.230571179945E+04   -0.83347E-01   -0.77310E-01  5917   0.470E-01    0.149E+00
RMM:   3    -0.230570148705E+04    0.10312E-01   -0.73164E-02  5705   0.149E-01    0.511E-01
RMM:   4    -0.230570066752E+04    0.81953E-03   -0.86635E-03  4829   0.352E-02    0.247E-01
RMM:   5    -0.230570041512E+04    0.25240E-03   -0.16573E-03  5103   0.269E-02    0.246E-01
RMM:   6    -0.230570011097E+04    0.30415E-03   -0.91285E-04  5132   0.189E-02    0.721E-02
RMM:   7    -0.230570008042E+04    0.30549E-04   -0.75964E-05  2998   0.685E-03    0.306E-02
RMM:   8    -0.230570007853E+04    0.18903E-05   -0.23050E-05  2840   0.419E-03
  62 F= -.23260811E+04 E0= -.23260811E+04  d E =-.479913E-02  mag=     3.0000
       N       E                     dE             d eps       ncg     rms          rms(c)
DAV:   1    -0.230569858428E+04    0.14961E-02   -0.20143E-01  4656   0.402E-01    0.137E-01
RMM:   2    -0.230570138811E+04   -0.28038E-02   -0.25921E-02  6174   0.822E-02    0.283E-01
RMM:   3    -0.230570108320E+04    0.30491E-03   -0.24243E-03  4286   0.261E-02    0.979E-02
RMM:   4    -0.230570106170E+04    0.21503E-04   -0.29003E-04  2995   0.692E-03    0.500E-02
RMM:   5    -0.230570105422E+04    0.74775E-05   -0.56318E-05  2985   0.506E-03
  63 F= -.23260821E+04 E0= -.23260821E+04  d E =-.951187E-03  mag=     3.0000
       N       E                     dE             d eps       ncg     rms          rms(c)
DAV:   1    -0.230568171918E+04    0.19343E-01   -0.18045E+00  4392   0.120E+00    0.409E-01
RMM:   2    -0.230570708224E+04   -0.25363E-01   -0.23397E-01  6082   0.245E-01    0.849E-01
RMM:   3    -0.230570411197E+04    0.29703E-02   -0.21912E-02  5738   0.768E-02    0.280E-01
RMM:   4    -0.230570391726E+04    0.19471E-03   -0.25530E-03  4624   0.180E-02    0.142E-01
RMM:   5    -0.230570385415E+04    0.63110E-04   -0.48150E-04  4387   0.137E-02    0.141E-01
RMM:   6    -0.230570375652E+04    0.97631E-04   -0.27610E-04  3943   0.109E-02    0.390E-02
RMM:   7    -0.230570374723E+04    0.92896E-05   -0.23308E-05  2853   0.491E-03
  64 F= -.23260847E+04 E0= -.23260847E+04  d E =-.357018E-02  mag=     3.0000
       N       E                     dE             d eps       ncg     rms          rms(c)
DAV:   1    -0.230561938114E+04    0.84375E-01   -0.72354E+00  4392   0.241E+00    0.838E-01
RMM:   2    -0.230572538974E+04   -0.10601E+00   -0.95650E-01  6068   0.500E-01    0.181E+00
RMM:   3    -0.230570939376E+04    0.15996E-01   -0.92301E-02  5849   0.156E-01    0.512E-01
RMM:   4    -0.230570898199E+04    0.41177E-03   -0.10963E-02  4885   0.357E-02    0.285E-01
RMM:   5    -0.230570884145E+04    0.14055E-03   -0.20372E-03  5046   0.267E-02    0.317E-01
RMM:   6    -0.230570827845E+04    0.56300E-03   -0.12673E-03  5167   0.207E-02    0.691E-02
RMM:   7    -0.230570825799E+04    0.20463E-04   -0.11448E-04  3019   0.714E-03    0.353E-02
RMM:   8    -0.230570825329E+04    0.46973E-05   -0.23353E-05  2843   0.413E-03
  65 F= -.23260891E+04 E0= -.23260891E+04  d E =-.792660E-02  mag=     3.0000
       N       E                     dE             d eps       ncg     rms          rms(c)
DAV:   1    -0.230535150851E+04    0.35675E+00   -0.28913E+01  4408   0.482E+00    0.179E+00
RMM:   2    -0.230582598661E+04   -0.47448E+00   -0.40437E+00  6104   0.103E+00    0.422E+00
RMM:   3    -0.230571500768E+04    0.11098E+00   -0.39582E-01  5886   0.319E-01    0.879E-01
RMM:   4    -0.230571461098E+04    0.39670E-03   -0.50332E-02  4990   0.733E-02    0.553E-01
RMM:   5    -0.230571484971E+04   -0.23874E-03   -0.74123E-03  5160   0.512E-02    0.737E-01
RMM:   6    -0.230571169633E+04    0.31534E-02   -0.53006E-03  5650   0.407E-02    0.107E-01
RMM:   7    -0.230571176275E+04   -0.66417E-04   -0.68064E-04  4144   0.133E-02    0.100E-01
RMM:   8    -0.230571172621E+04    0.36544E-04   -0.93622E-05  2916   0.743E-03    0.371E-02
RMM:   9    -0.230571173259E+04   -0.63886E-05   -0.28074E-05  2851   0.403E-03
  66 F= -.23260922E+04 E0= -.23260922E+04  d E =-.111048E-01  mag=     3.0000
       N       E                     dE             d eps       ncg     rms          rms(c)
DAV:   1    -0.230569360596E+04    0.18120E-01   -0.16530E+00  4480   0.112E+00    0.418E-01
RMM:   2    -0.230572026204E+04   -0.26656E-01   -0.23679E-01  6135   0.240E-01    0.989E-01
RMM:   3    -0.230571606716E+04    0.41949E-02   -0.22885E-02  5785   0.737E-02    0.266E-01
RMM:   4    -0.230571599822E+04    0.68939E-04   -0.27743E-03  4570   0.174E-02    0.153E-01
RMM:   5    -0.230571595191E+04    0.46307E-04   -0.48961E-04  4347   0.129E-02    0.167E-01
RMM:   6    -0.230571579613E+04    0.15578E-03   -0.30233E-04  3968   0.108E-02    0.264E-02
RMM:   7    -0.230571579384E+04    0.22961E-05   -0.29374E-05  2849   0.512E-03
  67 F= -.23260962E+04 E0= -.23260962E+04  d E =-.393596E-02  mag=     3.0000
       N       E                     dE             d eps       ncg     rms          rms(c)
DAV:   1    -0.230552159181E+04    0.19420E+00   -0.14851E+01  4392   0.337E+00    0.129E+00
RMM:   2    -0.230577679299E+04   -0.25520E+00   -0.22134E+00  6152   0.734E-01    0.313E+00
RMM:   3    -0.230572572091E+04    0.51072E-01   -0.22080E-01  5914   0.230E-01    0.692E-01
RMM:   4    -0.230572554753E+04    0.17337E-03   -0.26611E-02  5095   0.527E-02    0.431E-01
RMM:   5    -0.230572548869E+04    0.58841E-04   -0.42819E-03  5177   0.367E-02    0.550E-01
RMM:   6    -0.230572379786E+04    0.16908E-02   -0.30188E-03  5532   0.301E-02    0.706E-02
RMM:   7    -0.230572380282E+04   -0.49619E-05   -0.32847E-04  3473   0.101E-02    0.481E-02
RMM:   8    -0.230572378676E+04    0.16059E-04   -0.48339E-05  2845   0.536E-03    0.222E-02
RMM:   9    -0.230572378880E+04   -0.20389E-05   -0.16704E-05  2842   0.332E-03
  68 F= -.23261038E+04 E0= -.23261038E+04  d E =-.115511E-01  mag=     3.0000
       N       E                     dE             d eps       ncg     rms          rms(c)
DAV:   1    -0.230567530100E+04    0.48486E-01   -0.36603E+00  4408   0.167E+00    0.621E-01
RMM:   2    -0.230573516374E+04   -0.59863E-01   -0.53029E-01  6125   0.358E-01    0.152E+00
RMM:   3    -0.230572539309E+04    0.97706E-02   -0.52301E-02  5863   0.111E-01    0.383E-01
RMM:   4    -0.230572525374E+04    0.13935E-03   -0.62649E-03  4902   0.259E-02    0.220E-01
RMM:   5    -0.230572517937E+04    0.74368E-04   -0.10666E-03  4901   0.185E-02    0.264E-01
RMM:   6    -0.230572479677E+04    0.38261E-03   -0.73757E-04  4876   0.156E-02    0.397E-02
RMM:   7    -0.230572478955E+04    0.72212E-05   -0.66181E-05  2893   0.620E-03
  69 F= -.23261046E+04 E0= -.23261046E+04  d E =-.123616E-01  mag=     3.0000
       N       E                     dE             d eps       ncg     rms          rms(c)
DAV:   1    -0.230572450455E+04    0.29222E-03   -0.43634E-01  4624   0.569E-01    0.240E-01
RMM:   2    -0.230573278871E+04   -0.82842E-02   -0.78088E-02  5993   0.134E-01    0.482E-01
RMM:   3    -0.230573215282E+04    0.63589E-03   -0.74147E-03  5329   0.446E-02    0.201E-01
RMM:   4    -0.230573204951E+04    0.10332E-03   -0.86718E-04  4064   0.114E-02    0.844E-02
RMM:   5    -0.230573200445E+04    0.45055E-04   -0.12563E-04  3477   0.825E-03    0.624E-02
RMM:   6    -0.230573198501E+04    0.19439E-04   -0.80048E-05  3094   0.736E-03    0.153E-02
RMM:   7    -0.230573198387E+04    0.11430E-05   -0.10142E-05  2829   0.486E-03
  70 F= -.23261116E+04 E0= -.23261116E+04  d E =-.703007E-02  mag=     3.0000
       N       E                     dE             d eps       ncg     rms          rms(c)
DAV:   1    -0.230567910452E+04    0.52880E-01   -0.39191E+00  4392   0.171E+00    0.718E-01
RMM:   2    -0.230575479014E+04   -0.75686E-01   -0.70859E-01  5969   0.406E-01    0.147E+00
RMM:   3    -0.230574784670E+04    0.69434E-02   -0.69446E-02  5725   0.137E-01    0.540E-01
RMM:   4    -0.230574713879E+04    0.70790E-03   -0.79536E-03  5052   0.336E-02    0.236E-01
RMM:   5    -0.230574679955E+04    0.33925E-03   -0.11369E-03  5049   0.229E-02    0.210E-01
RMM:   6    -0.230574656221E+04    0.23734E-03   -0.81321E-04  5155   0.172E-02    0.556E-02
RMM:   7    -0.230574653995E+04    0.22254E-04   -0.64800E-05  2991   0.782E-03    0.210E-02
RMM:   8    -0.230574653616E+04    0.37876E-05   -0.17166E-05  2846   0.367E-03
  71 F= -.23261257E+04 E0= -.23261257E+04  d E =-.210884E-01  mag=     3.0000
       N       E                     dE             d eps       ncg     rms          rms(c)
DAV:   1    -0.230547192091E+04    0.27462E+00   -0.15663E+01  4392   0.341E+00    0.147E+00
RMM:   2    -0.230579072126E+04   -0.31880E+00   -0.29049E+00  6008   0.832E-01    0.319E+00
RMM:   3    -0.230574769936E+04    0.43022E-01   -0.29688E-01  5694   0.288E-01    0.915E-01
RMM:   4    -0.230574644025E+04    0.12591E-02   -0.34138E-02  5091   0.683E-02    0.475E-01
RMM:   5    -0.230574571327E+04    0.72698E-03   -0.46093E-03  5105   0.455E-02    0.525E-01
RMM:   6    -0.230574410838E+04    0.16049E-02   -0.41353E-03  5551   0.368E-02    0.114E-01
RMM:   7    -0.230574405622E+04    0.52161E-04   -0.40743E-04  4321   0.165E-02    0.434E-02
RMM:   8    -0.230574403873E+04    0.17489E-04   -0.72789E-05  3112   0.677E-03    0.210E-02
RMM:   9    -0.230574403742E+04    0.13150E-05   -0.29603E-05  2901   0.479E-03
  72 F= -.23261222E+04 E0= -.23261222E+04  d E =-.175913E-01  mag=     3.0000
       N       E                     dE             d eps       ncg     rms          rms(c)
DAV:   1    -0.230566055508E+04    0.83484E-01   -0.52518E+00  4392   0.198E+00    0.779E-01
RMM:   2    -0.230574999320E+04   -0.89438E-01   -0.90943E-01  5960   0.452E-01    0.117E+00
RMM:   3    -0.230575515594E+04   -0.51627E-02   -0.96348E-02  5703   0.163E-01    0.962E-01
RMM:   4    -0.230575127713E+04    0.38788E-02   -0.95924E-03  5497   0.404E-02    0.241E-01
RMM:   5    -0.230575071374E+04    0.56339E-03   -0.15569E-03  5005   0.251E-02    0.123E-01
RMM:   6    -0.230575064626E+04    0.67483E-04   -0.64344E-04  4888   0.180E-02    0.850E-02
RMM:   7    -0.230575061041E+04    0.35854E-04   -0.87643E-05  3373   0.907E-03    0.222E-02
RMM:   8    -0.230575060595E+04    0.44586E-05   -0.19756E-05  2843   0.410E-03
  73 F= -.23261294E+04 E0= -.23261294E+04  d E =-.247401E-01  mag=     3.0000
       N       E                     dE             d eps       ncg     rms          rms(c)
DAV:   1    -0.230573192268E+04    0.18688E-01   -0.17034E+00  4392   0.111E+00    0.467E-01
RMM:   2    -0.230576324633E+04   -0.31324E-01   -0.31257E-01  6014   0.263E-01    0.736E-01
RMM:   3    -0.230576387180E+04   -0.62546E-03   -0.32693E-02  5719   0.915E-02    0.510E-01
RMM:   4    -0.230576294063E+04    0.93117E-03   -0.33372E-03  5150   0.217E-02    0.143E-01
RMM:   5    -0.230576274728E+04    0.19335E-03   -0.44754E-04  4310   0.131E-02    0.706E-02
RMM:   6    -0.230576272562E+04    0.21666E-04   -0.21327E-04  4127   0.110E-02    0.415E-02
RMM:   7    -0.230576271882E+04    0.67991E-05   -0.29394E-05  2889   0.650E-03
  74 F= -.23261410E+04 E0= -.23261410E+04  d E =-.116658E-01  mag=     3.0000
       N       E                     dE             d eps       ncg     rms          rms(c)
DAV:   1    -0.230556230967E+04    0.20042E+00   -0.11742E+01  4392   0.293E+00    0.126E+00
RMM:   2    -0.230578891079E+04   -0.22660E+00   -0.22091E+00  6064   0.707E-01    0.220E+00
RMM:   3    -0.230578285334E+04    0.60575E-02   -0.23935E-01  5767   0.249E-01    0.115E+00
RMM:   4    -0.230577863513E+04    0.42182E-02   -0.23932E-02  5529   0.565E-02    0.384E-01
RMM:   5    -0.230577743529E+04    0.11998E-02   -0.29418E-03  4926   0.326E-02    0.231E-01
RMM:   6    -0.230577716198E+04    0.27331E-03   -0.20845E-03  4964   0.297E-02    0.792E-02
RMM:   7    -0.230577711891E+04    0.43070E-04   -0.23526E-04  4279   0.129E-02    0.451E-02
RMM:   8    -0.230577710179E+04    0.17122E-04   -0.52811E-05  2946   0.486E-03    0.225E-02
RMM:   9    -0.230577709658E+04    0.52143E-05   -0.13889E-05  2828   0.367E-03
  75 F= -.23261542E+04 E0= -.23261542E+04  d E =-.248674E-01  mag=     3.0000
       N       E                     dE             d eps       ncg     rms          rms(c)
DAV:   1    -0.230573661698E+04    0.40485E-01   -0.33487E+00  4396   0.156E+00    0.634E-01
RMM:   2    -0.230579246998E+04   -0.55853E-01   -0.57612E-01  6093   0.353E-01    0.835E-01
RMM:   3    -0.230579672859E+04   -0.42586E-02   -0.62862E-02  5873   0.123E-01    0.806E-01
RMM:   4    -0.230579416486E+04    0.25637E-02   -0.62361E-03  5547   0.306E-02    0.200E-01
RMM:   5    -0.230579392004E+04    0.24482E-03   -0.12189E-03  4771   0.185E-02    0.133E-01
RMM:   6    -0.230579385786E+04    0.62178E-04   -0.50908E-04  4645   0.141E-02    0.741E-02
RMM:   7    -0.230579383416E+04    0.23706E-04   -0.70963E-05  3087   0.806E-03    0.207E-02
RMM:   8    -0.230579383183E+04    0.23263E-05   -0.17569E-05  2833   0.389E-03
  76 F= -.23261703E+04 E0= -.23261703E+04  d E =-.161167E-01  mag=     3.0000
       N       E                     dE             d eps       ncg     rms          rms(c)
DAV:   1    -0.230558525387E+04    0.20858E+00   -0.13164E+01  4392   0.309E+00    0.125E+00
RMM:   2    -0.230580682244E+04   -0.22157E+00   -0.22937E+00  6109   0.709E-01    0.162E+00
RMM:   3    -0.230582209431E+04   -0.15272E-01   -0.26034E-01  5901   0.249E-01    0.143E+00
RMM:   4    -0.230581341512E+04    0.86792E-02   -0.24328E-02  5822   0.603E-02    0.376E-01
RMM:   5    -0.230581253015E+04    0.88497E-03   -0.46482E-03  5111   0.357E-02    0.268E-01
RMM:   6    -0.230581217203E+04    0.35812E-03   -0.21528E-03  4998   0.268E-02    0.123E-01
RMM:   7    -0.230581211073E+04    0.61293E-04   -0.32441E-04  4588   0.167E-02    0.432E-02
RMM:   8    -0.230581209535E+04    0.15379E-04   -0.74394E-05  3029   0.559E-03    0.167E-02
RMM:   9    -0.230581209504E+04    0.31738E-06   -0.16295E-05  2851   0.385E-03
  77 F= -.23261874E+04 E0= -.23261874E+04  d E =-.331396E-01  mag=     3.0000
       N       E                     dE             d eps       ncg     rms          rms(c)
DAV:   1    -0.230579013152E+04    0.21964E-01   -0.13783E+00  4528   0.100E+00    0.392E-01
RMM:   2    -0.230581243924E+04   -0.22308E-01   -0.23605E-01  6118   0.224E-01    0.423E-01
RMM:   3    -0.230581483536E+04   -0.23961E-02   -0.25204E-02  5793   0.774E-02    0.504E-01
RMM:   4    -0.230581374067E+04    0.10947E-02   -0.26331E-03  5111   0.198E-02    0.117E-01
RMM:   5    -0.230581365688E+04    0.83782E-04   -0.45171E-04  4190   0.117E-02    0.883E-02
RMM:   6    -0.230581361759E+04    0.39295E-04   -0.20912E-04  4138   0.989E-03    0.440E-02
RMM:   7    -0.230581360927E+04    0.83222E-05   -0.29401E-05  2871   0.623E-03
  78 F= -.23261885E+04 E0= -.23261885E+04  d E =-.342482E-01  mag=     3.0000
       N       E                     dE             d eps       ncg     rms          rms(c)
DAV:   1    -0.230577264445E+04    0.40973E-01   -0.32875E+00  4408   0.154E+00    0.573E-01
RMM:   2    -0.230582403923E+04   -0.51395E-01   -0.55558E-01  6159   0.336E-01    0.460E-01
RMM:   3    -0.230583032465E+04   -0.62854E-02   -0.58942E-02  5844   0.116E-01    0.668E-01
RMM:   4    -0.230582847804E+04    0.18466E-02   -0.62548E-03  5576   0.282E-02    0.198E-01
RMM:   5    -0.230582826288E+04    0.21516E-03   -0.97293E-04  4611   0.158E-02    0.148E-01
RMM:   6    -0.230582812038E+04    0.14251E-03   -0.52581E-04  4590   0.135E-02    0.449E-02
RMM:   7    -0.230582811745E+04    0.29238E-05   -0.70972E-05  3089   0.891E-03
  79 F= -.23262025E+04 E0= -.23262025E+04  d E =-.140070E-01  mag=     3.0000
       N       E                     dE             d eps       ncg     rms          rms(c)
DAV:   1    -0.230533736264E+04    0.49076E+00   -0.29487E+01  4392   0.461E+00    0.173E+00
RMM:   2    -0.230581587783E+04   -0.47852E+00   -0.51399E+00  6225   0.104E+00    0.162E+00
RMM:   3    -0.230586475794E+04   -0.48880E-01   -0.58421E-01  5976   0.355E-01    0.171E+00
RMM:   4    -0.230585126895E+04    0.13489E-01   -0.56121E-02  6154   0.863E-02    0.636E-01
RMM:   5    -0.230584885345E+04    0.24155E-02   -0.91250E-03  5478   0.444E-02    0.396E-01
RMM:   6    -0.230584757114E+04    0.12823E-02   -0.49006E-03  4632   0.363E-02    0.137E-01
RMM:   7    -0.230584754108E+04    0.30058E-04   -0.94473E-04  4555   0.279E-02    0.621E-02
RMM:   8    -0.230584752618E+04    0.14906E-04   -0.17606E-04  3700   0.827E-03    0.299E-02
RMM:   9    -0.230584752041E+04    0.57653E-05   -0.40079E-05  2886   0.630E-03
  80 F= -.23262203E+04 E0= -.23262203E+04  d E =-.318267E-01  mag=     3.0000
       N       E                     dE             d eps       ncg     rms          rms(c)
DAV:   1    -0.230575872013E+04    0.88806E-01   -0.64862E+00  4424   0.220E+00    0.813E-01
RMM:   2    -0.230586022229E+04   -0.10150E+00   -0.11172E+00  6160   0.479E-01    0.420E-01
RMM:   3    -0.230587010246E+04   -0.98802E-02   -0.11920E-01  5619   0.163E-01    0.289E-01
RMM:   4    -0.230587029541E+04   -0.19295E-03   -0.11891E-02  5431   0.376E-02    0.194E-01
RMM:   5    -0.230587011211E+04    0.18330E-03   -0.16453E-03  4949   0.234E-02    0.210E-01
RMM:   6    -0.230586991230E+04    0.19981E-03   -0.68452E-04  4261   0.153E-02    0.126E-01
RMM:   7    -0.230586982983E+04    0.82469E-04   -0.13538E-04  3704   0.780E-03    0.250E-02
RMM:   8    -0.230586982671E+04    0.31201E-05   -0.24874E-05  2839   0.536E-03
  81 F= -.23262417E+04 E0= -.23262417E+04  d E =-.214569E-01  mag=     3.0000
       N       E                     dE             d eps       ncg     rms          rms(c)
DAV:   1    -0.230574895461E+04    0.12088E+00   -0.76220E+00  4424   0.239E+00    0.880E-01
RMM:   2    -0.230586878956E+04   -0.11983E+00   -0.13197E+00  6199   0.519E-01    0.449E-01
RMM:   3    -0.230588072623E+04   -0.11937E-01   -0.14239E-01  5640   0.175E-01    0.322E-01
RMM:   4    -0.230588103752E+04   -0.31130E-03   -0.14345E-02  5505   0.409E-02    0.277E-01
RMM:   5    -0.230588105156E+04   -0.14032E-04   -0.19655E-03  5204   0.215E-02    0.315E-01
RMM:   6    -0.230588030541E+04    0.74615E-03   -0.12448E-03  5130   0.191E-02    0.950E-02
RMM:   7    -0.230588026813E+04    0.37279E-04   -0.19171E-04  3839   0.114E-02    0.326E-02
RMM:   8    -0.230588026040E+04    0.77263E-05   -0.38075E-05  2878   0.507E-03
  82 F= -.23262512E+04 E0= -.23262512E+04  d E =-.309029E-01  mag=     3.0000
       N       E                     dE             d eps       ncg     rms          rms(c)
DAV:   1    -0.230585540040E+04    0.24868E-01   -0.28103E+00  4496   0.149E+00    0.586E-01
RMM:   2    -0.230590102952E+04   -0.45629E-01   -0.49506E-01  5994   0.330E-01    0.368E-01
RMM:   3    -0.230590676681E+04   -0.57373E-02   -0.55300E-02  5829   0.121E-01    0.551E-01
RMM:   4    -0.230590479510E+04    0.19717E-02   -0.56429E-03  5807   0.297E-02    0.161E-01
RMM:   5    -0.230590452283E+04    0.27227E-03   -0.11151E-03  5085   0.187E-02    0.858E-02
RMM:   6    -0.230590446049E+04    0.62342E-04   -0.40126E-04  4805   0.131E-02    0.395E-02
RMM:   7    -0.230590444867E+04    0.11821E-04   -0.47301E-05  3000   0.718E-03    0.144E-02
RMM:   8    -0.230590444878E+04   -0.11179E-06   -0.17525E-05  2853   0.400E-03
  83 F= -.23262745E+04 E0= -.23262745E+04  d E =-.232699E-01  mag=     3.0000
       N       E                     dE             d eps       ncg     rms          rms(c)
DAV:   1    -0.230581720147E+04    0.87247E-01   -0.57828E+00  4392   0.214E+00    0.840E-01
RMM:   2    -0.230591119917E+04   -0.93998E-01   -0.10231E+00  5970   0.475E-01    0.493E-01
RMM:   3    -0.230592310268E+04   -0.11904E-01   -0.11617E-01  5812   0.177E-01    0.744E-01
RMM:   4    -0.230591940470E+04    0.36980E-02   -0.11541E-02  6156   0.419E-02    0.236E-01
RMM:   5    -0.230591880273E+04    0.60197E-03   -0.21427E-03  5321   0.258E-02    0.129E-01
RMM:   6    -0.230591866137E+04    0.14136E-03   -0.95764E-04  5088   0.185E-02    0.629E-02
RMM:   7    -0.230591862609E+04    0.35274E-04   -0.13779E-04  3789   0.107E-02    0.237E-02
RMM:   8    -0.230591862671E+04   -0.61598E-06   -0.46936E-05  3049   0.477E-03
  84 F= -.23262873E+04 E0= -.23262873E+04  d E =-.361145E-01  mag=     3.0000
       N       E                     dE             d eps       ncg     rms          rms(c)
DAV:   1    -0.230589429152E+04    0.24335E-01   -0.26519E+00  4480   0.147E+00    0.592E-01
RMM:   2    -0.230593662972E+04   -0.42338E-01   -0.45249E-01  6020   0.326E-01    0.437E-01
RMM:   3    -0.230594205372E+04   -0.54240E-02   -0.51193E-02  5856   0.119E-01    0.606E-01
RMM:   4    -0.230593936711E+04    0.26866E-02   -0.52852E-03  5817   0.305E-02    0.147E-01
RMM:   5    -0.230593916225E+04    0.20486E-03   -0.12794E-03  5112   0.191E-02    0.855E-02
RMM:   6    -0.230593911094E+04    0.51311E-04   -0.32110E-04  4609   0.124E-02    0.321E-02
RMM:   7    -0.230593910618E+04    0.47663E-05   -0.48298E-05  3038   0.687E-03
  85 F= -.23263069E+04 E0= -.23263069E+04  d E =-.195519E-01  mag=     3.0000
       N       E                     dE             d eps       ncg     rms          rms(c)
DAV:   1    -0.230584504887E+04    0.94062E-01   -0.61595E+00  4392   0.224E+00    0.901E-01
RMM:   2    -0.230594346743E+04   -0.98419E-01   -0.10568E+00  6021   0.497E-01    0.621E-01
RMM:   3    -0.230595647901E+04   -0.13012E-01   -0.12189E-01  5890   0.180E-01    0.884E-01
RMM:   4    -0.230595045632E+04    0.60227E-02   -0.12311E-02  6093   0.461E-02    0.229E-01
RMM:   5    -0.230594990722E+04    0.54910E-03   -0.30132E-03  5387   0.286E-02    0.132E-01
RMM:   6    -0.230594976561E+04    0.14161E-03   -0.93454E-04  5090   0.184E-02    0.569E-02
RMM:   7    -0.230594972685E+04    0.38757E-04   -0.14191E-04  3765   0.105E-02    0.246E-02
RMM:   8    -0.230594972564E+04    0.12168E-05   -0.47401E-05  3129   0.499E-03
  86 F= -.23263161E+04 E0= -.23263161E+04  d E =-.287458E-01  mag=     3.0000
       N       E                     dE             d eps       ncg     rms          rms(c)
DAV:   1    -0.230591613463E+04    0.33592E-01   -0.31498E+00  4464   0.160E+00    0.626E-01
RMM:   2    -0.230596556175E+04   -0.49427E-01   -0.51604E-01  6179   0.349E-01    0.554E-01
RMM:   3    -0.230597050396E+04   -0.49422E-02   -0.55705E-02  5908   0.118E-01    0.593E-01
RMM:   4    -0.230596781518E+04    0.26888E-02   -0.58345E-03  5710   0.314E-02    0.157E-01
RMM:   5    -0.230596760133E+04    0.21385E-03   -0.11686E-03  4997   0.191E-02    0.898E-02
RMM:   6    -0.230596756719E+04    0.34143E-04   -0.32236E-04  4427   0.133E-02    0.332E-02
RMM:   7    -0.230596756795E+04   -0.76441E-06   -0.57455E-05  2965   0.683E-03
  87 F= -.23263330E+04 E0= -.23263330E+04  d E =-.169904E-01  mag=     3.0000
       N       E                     dE             d eps       ncg     rms          rms(c)
DAV:   1    -0.230568803587E+04    0.27953E+00   -0.17802E+01  4392   0.380E+00    0.146E+00
RMM:   2    -0.230596614906E+04   -0.27811E+00   -0.29479E+00  6186   0.835E-01    0.103E+00
RMM:   3    -0.230600119689E+04   -0.35048E-01   -0.34797E-01  5939   0.288E-01    0.127E+00
RMM:   4    -0.230598733305E+04    0.13864E-01   -0.33030E-02  6147   0.725E-02    0.394E-01
RMM:   5    -0.230598592011E+04    0.14129E-02   -0.71031E-03  5409   0.437E-02    0.221E-01
RMM:   6    -0.230598568574E+04    0.23437E-03   -0.26698E-03  5104   0.301E-02    0.119E-01
RMM:   7    -0.230598559071E+04    0.95029E-04   -0.42522E-04  4420   0.182E-02    0.426E-02
RMM:   8    -0.230598560099E+04   -0.10281E-04   -0.12637E-04  3278   0.625E-03    0.196E-02
RMM:   9    -0.230598561276E+04   -0.11768E-04   -0.21897E-05  2858   0.458E-03    0.860E-03
RMM:  10    -0.230598561984E+04   -0.70791E-05   -0.73317E-06  2826   0.284E-03
  88 F= -.23263490E+04 E0= -.23263490E+04  d E =-.329697E-01  mag=     3.0000
       N       E                     dE             d eps       ncg     rms          rms(c)
DAV:   1    -0.230593648175E+04    0.49131E-01   -0.43060E+00  4464   0.182E+00    0.726E-01
RMM:   2    -0.230600326943E+04   -0.66788E-01   -0.69659E-01  6136   0.407E-01    0.588E-01
RMM:   3    -0.230600936044E+04   -0.60910E-02   -0.73920E-02  5960   0.134E-01    0.579E-01
RMM:   4    -0.230600640385E+04    0.29566E-02   -0.77840E-03  5805   0.351E-02    0.182E-01
RMM:   5    -0.230600607461E+04    0.32925E-03   -0.14215E-03  5046   0.213E-02    0.979E-02
RMM:   6    -0.230600601433E+04    0.60275E-04   -0.52984E-04  4855   0.158E-02    0.352E-02
RMM:   7    -0.230600600646E+04    0.78689E-05   -0.71022E-05  3118   0.744E-03
  89 F= -.23263687E+04 E0= -.23263687E+04  d E =-.196613E-01  mag=     3.0000
       N       E                     dE             d eps       ncg     rms          rms(c)
DAV:   1    -0.230591076561E+04    0.95249E-01   -0.63581E+00  4392   0.221E+00    0.877E-01
RMM:   2    -0.230600922040E+04   -0.98455E-01   -0.10323E+00  6136   0.499E-01    0.650E-01
RMM:   3    -0.230601895226E+04   -0.97319E-02   -0.11203E-01  5962   0.164E-01    0.663E-01
RMM:   4    -0.230601486794E+04    0.40843E-02   -0.11533E-02  5975   0.427E-02    0.225E-01
RMM:   5    -0.230601436243E+04    0.50551E-03   -0.20956E-03  5167   0.258E-02    0.120E-01
RMM:   6    -0.230601426526E+04    0.97171E-04   -0.85322E-04  5210   0.188E-02    0.476E-02
RMM:   7    -0.230601424648E+04    0.18779E-04   -0.97427E-05  3488   0.892E-03    0.216E-02
RMM:   8    -0.230601424325E+04    0.32306E-05   -0.29857E-05  2867   0.437E-03
  90 F= -.23263760E+04 E0= -.23263760E+04  d E =-.270043E-01  mag=     3.0000
       N       E                     dE             d eps       ncg     rms          rms(c)
DAV:   1    -0.230595651519E+04    0.57731E-01   -0.44697E+00  4472   0.184E+00    0.787E-01
RMM:   2    -0.230602940155E+04   -0.72886E-01   -0.76319E-01  6061   0.430E-01    0.554E-01
RMM:   3    -0.230603636363E+04   -0.69621E-02   -0.82637E-02  5950   0.148E-01    0.550E-01
RMM:   4    -0.230603338004E+04    0.29836E-02   -0.88188E-03  5894   0.389E-02    0.188E-01
RMM:   5    -0.230603305321E+04    0.32684E-03   -0.14318E-03  4947   0.226E-02    0.995E-02
RMM:   6    -0.230603298764E+04    0.65570E-04   -0.56981E-04  5166   0.159E-02    0.374E-02
RMM:   7    -0.230603297779E+04    0.98474E-05   -0.68492E-05  3165   0.822E-03
  91 F= -.23263942E+04 E0= -.23263942E+04  d E =-.181777E-01  mag=     3.0000
       N       E                     dE             d eps       ncg     rms          rms(c)
DAV:   1    -0.230599916806E+04    0.33820E-01   -0.22045E+00  4480   0.130E+00    0.553E-01
RMM:   2    -0.230603508799E+04   -0.35920E-01   -0.37684E-01  6067   0.300E-01    0.377E-01
RMM:   3    -0.230603840844E+04   -0.33204E-02   -0.39774E-02  5899   0.100E-01    0.368E-01
RMM:   4    -0.230603705667E+04    0.13518E-02   -0.43801E-03  5577   0.270E-02    0.132E-01
RMM:   5    -0.230603689061E+04    0.16606E-03   -0.68906E-04  4520   0.162E-02    0.697E-02
RMM:   6    -0.230603685098E+04    0.39629E-04   -0.28613E-04  4644   0.121E-02    0.240E-02
RMM:   7    -0.230603684486E+04    0.61236E-05   -0.36045E-05  2904   0.663E-03
  92 F= -.23263977E+04 E0= -.23263977E+04  d E =-.216586E-01  mag=     3.0000
       N       E                     dE             d eps       ncg     rms          rms(c)
DAV:   1    -0.230597030670E+04    0.66544E-01   -0.40747E+00  4392   0.173E+00    0.741E-01
RMM:   2    -0.230605047934E+04   -0.80173E-01   -0.84570E-01  6172   0.424E-01    0.476E-01
RMM:   3    -0.230605875989E+04   -0.82805E-02   -0.94813E-02  5922   0.147E-01    0.466E-01
RMM:   4    -0.230605673243E+04    0.20275E-02   -0.93294E-03  5893   0.357E-02    0.189E-01
RMM:   5    -0.230605641547E+04    0.31697E-03   -0.13743E-03  4898   0.192E-02    0.105E-01
RMM:   6    -0.230605634058E+04    0.74892E-04   -0.57874E-04  4924   0.141E-02    0.448E-02
RMM:   7    -0.230605632728E+04    0.13294E-04   -0.87290E-05  3262   0.903E-03    0.178E-02
RMM:   8    -0.230605632526E+04    0.20248E-05   -0.24503E-05  2846   0.451E-03
  93 F= -.23264170E+04 E0= -.23264170E+04  d E =-.193379E-01  mag=     3.0000
       N       E                     dE             d eps       ncg     rms          rms(c)
DAV:   1    -0.230592934307E+04    0.12698E+00   -0.63655E+00  4392   0.217E+00    0.926E-01
RMM:   2    -0.230605492855E+04   -0.12559E+00   -0.13279E+00  6175   0.531E-01    0.570E-01
RMM:   3    -0.230606789524E+04   -0.12967E-01   -0.14948E-01  5945   0.184E-01    0.546E-01
RMM:   4    -0.230606507370E+04    0.28215E-02   -0.14459E-02  6081   0.442E-02    0.239E-01
RMM:   5    -0.230606458141E+04    0.49229E-03   -0.21966E-03  5145   0.232E-02    0.135E-01
RMM:   6    -0.230606445134E+04    0.13007E-03   -0.91839E-04  5093   0.169E-02    0.586E-02
RMM:   7    -0.230606442630E+04    0.25044E-04   -0.14770E-04  3860   0.110E-02    0.226E-02
RMM:   8    -0.230606442101E+04    0.52917E-05   -0.41764E-05  2943   0.493E-03
  94 F= -.23264250E+04 E0= -.23264250E+04  d E =-.272997E-01  mag=     3.0000
       N       E                     dE             d eps       ncg     rms          rms(c)
DAV:   1    -0.230598788834E+04    0.76538E-01   -0.44504E+00  4392   0.183E+00    0.778E-01
RMM:   2    -0.230607404966E+04   -0.86161E-01   -0.91772E-01  6122   0.438E-01    0.463E-01
RMM:   3    -0.230608308298E+04   -0.90333E-02   -0.10366E-01  5905   0.161E-01    0.443E-01
RMM:   4    -0.230608117476E+04    0.19082E-02   -0.10081E-02  5955   0.376E-02    0.196E-01
RMM:   5    -0.230608085464E+04    0.32012E-03   -0.15179E-03  4989   0.204E-02    0.111E-01
RMM:   6    -0.230608077681E+04    0.77828E-04   -0.67977E-04  5071   0.155E-02    0.448E-02
RMM:   7    -0.230608076520E+04    0.11606E-04   -0.95571E-05  3383   0.941E-03    0.174E-02
RMM:   8    -0.230608076352E+04    0.16793E-05   -0.24757E-05  2854   0.425E-03
  95 F= -.23264409E+04 E0= -.23264409E+04  d E =-.159099E-01  mag=     3.0000
       N       E                     dE             d eps       ncg     rms          rms(c)
DAV:   1    -0.230600884578E+04    0.71919E-01   -0.36914E+00  4396   0.167E+00    0.709E-01
RMM:   2    -0.230608039106E+04   -0.71545E-01   -0.76286E-01  6107   0.397E-01    0.415E-01
RMM:   3    -0.230608760934E+04   -0.72183E-02   -0.83953E-02  5883   0.144E-01    0.385E-01
RMM:   4    -0.230608618866E+04    0.14207E-02   -0.83581E-03  5847   0.339E-02    0.178E-01
RMM:   5    -0.230608591984E+04    0.26882E-03   -0.11930E-03  4845   0.188E-02    0.102E-01
RMM:   6    -0.230608585355E+04    0.66290E-04   -0.58811E-04  4975   0.145E-02    0.407E-02
RMM:   7    -0.230608584166E+04    0.11892E-04   -0.80782E-05  3240   0.882E-03    0.167E-02
RMM:   8    -0.230608583964E+04    0.20166E-05   -0.20949E-05  2852   0.418E-03
  96 F= -.23264456E+04 E0= -.23264456E+04  d E =-.206146E-01  mag=     3.0000
       N       E                     dE             d eps       ncg     rms          rms(c)
DAV:   1    -0.230598282725E+04    0.10301E+00   -0.55723E+00  4392   0.198E+00    0.827E-01
RMM:   2    -0.230609464627E+04   -0.11182E+00   -0.11974E+00  6228   0.461E-01    0.499E-01
RMM:   3    -0.230610686472E+04   -0.12218E-01   -0.13632E-01  5949   0.165E-01    0.459E-01
RMM:   4    -0.230610511932E+04    0.17454E-02   -0.13190E-02  5858   0.383E-02    0.233E-01
RMM:   5    -0.230610475125E+04    0.36807E-03   -0.14288E-03  4648   0.197E-02    0.153E-01
RMM:   6    -0.230610466029E+04    0.90963E-04   -0.12133E-03  4994   0.190E-02    0.669E-02
RMM:   7    -0.230610464414E+04    0.16144E-04   -0.17704E-04  3538   0.108E-02    0.273E-02
RMM:   8    -0.230610464156E+04    0.25813E-05   -0.40930E-05  2858   0.450E-03
  97 F= -.23264632E+04 E0= -.23264632E+04  d E =-.176141E-01  mag=     3.0000
       N       E                     dE             d eps       ncg     rms          rms(c)
DAV:   1    -0.230576219281E+04    0.34245E+00   -0.15961E+01  4392   0.334E+00    0.139E+00
RMM:   2    -0.230608350098E+04   -0.32131E+00   -0.34564E+00  6231   0.780E-01    0.763E-01
RMM:   3    -0.230612160991E+04   -0.38109E-01   -0.41137E-01  5901   0.285E-01    0.735E-01
RMM:   4    -0.230611759609E+04    0.40138E-02   -0.37839E-02  6135   0.634E-02    0.410E-01
RMM:   5    -0.230611656543E+04    0.10307E-02   -0.36753E-03  5089   0.297E-02    0.289E-01
RMM:   6    -0.230611619615E+04    0.36927E-03   -0.41810E-03  5000   0.329E-02    0.145E-01
RMM:   7    -0.230611612684E+04    0.69314E-04   -0.80661E-04  4538   0.202E-02    0.641E-02
RMM:   8    -0.230611610716E+04    0.19682E-04   -0.21441E-04  3476   0.816E-03    0.234E-02
RMM:   9    -0.230611610810E+04   -0.94491E-06   -0.36221E-05  2873   0.548E-03
  98 F= -.23264727E+04 E0= -.23264727E+04  d E =-.271059E-01  mag=     3.0000
       N       E                     dE             d eps       ncg     rms          rms(c)
DAV:   1    -0.230599718095E+04    0.11893E+00   -0.58277E+00  4424   0.202E+00    0.846E-01
RMM:   2    -0.230611588733E+04   -0.11871E+00   -0.12727E+00  6180   0.466E-01    0.501E-01
RMM:   3    -0.230612933631E+04   -0.13449E-01   -0.15308E-01  5864   0.184E-01    0.424E-01
RMM:   4    -0.230612814185E+04    0.11945E-02   -0.14400E-02  5918   0.386E-02    0.245E-01
[...]
DAV:   1    -0.230643809753E+04    0.24462E-04   -0.17544E-03  5320   0.419E-02    0.166E-02
RMM:   2    -0.230643811424E+04   -0.16716E-04   -0.18818E-04  3636   0.967E-03    0.758E-03
RMM:   3    -0.230643811562E+04   -0.13785E-05   -0.21150E-05  2710   0.554E-03
 258 F= -.23267676E+04 E0= -.23267676E+04  d E =-.189126E-03  mag=     3.0000
       N       E                     dE             d eps       ncg     rms          rms(c)
DAV:   1    -0.230643782705E+04    0.28719E-03   -0.49418E-02  4408   0.216E-01    0.805E-02
RMM:   2    -0.230643828810E+04   -0.46105E-03   -0.50129E-03  5888   0.420E-02    0.442E-02
RMM:   3    -0.230643832104E+04   -0.32939E-04   -0.48140E-04  3339   0.156E-02    0.424E-02
RMM:   4    -0.230643830273E+04    0.18307E-04   -0.66046E-05  2885   0.547E-03    0.222E-02
RMM:   5    -0.230643829701E+04    0.57227E-05   -0.23100E-05  2865   0.427E-03
 259 F= -.23267678E+04 E0= -.23267678E+04  d E =-.166629E-03  mag=     3.0000
       N       E                     dE             d eps       ncg     rms          rms(c)
DAV:   1    -0.230643829102E+04    0.11714E-04   -0.59621E-04  5088   0.242E-02    0.959E-03
RMM:   2    -0.230643829704E+04   -0.60179E-05   -0.67527E-05  2939   0.581E-03
 260 F= -.23267678E+04 E0= -.23267678E+04  d E =-.164981E-03  mag=     3.0000
       N       E                     dE             d eps       ncg     rms          rms(c)
DAV:   1    -0.230643807287E+04    0.21815E-03   -0.46698E-02  4392   0.211E-01    0.798E-02
RMM:   2    -0.230643847938E+04   -0.40651E-03   -0.44530E-03  5995   0.422E-02    0.450E-02
RMM:   3    -0.230643851068E+04   -0.31299E-04   -0.47448E-04  3576   0.173E-02    0.450E-02
RMM:   4    -0.230643848841E+04    0.22272E-04   -0.59117E-05  2881   0.558E-03    0.213E-02
RMM:   5    -0.230643848229E+04    0.61149E-05   -0.24724E-05  2866   0.443E-03
 261 F= -.23267680E+04 E0= -.23267680E+04  d E =-.169206E-03  mag=     3.0000
       N       E                     dE             d eps       ncg     rms          rms(c)
DAV:   1    -0.230643847880E+04    0.96090E-05   -0.29497E-04  5096   0.175E-02    0.726E-03
RMM:   2    -0.230643848149E+04   -0.26915E-05   -0.33370E-05  2753   0.433E-03
 262 F= -.23267680E+04 E0= -.23267680E+04  d E =-.167064E-03  mag=     3.0000
       N       E                     dE             d eps       ncg     rms          rms(c)
DAV:   1    -0.230643831706E+04    0.16174E-03   -0.35687E-02  4392   0.181E-01    0.684E-02
RMM:   2    -0.230643863530E+04   -0.31824E-03   -0.34646E-03  5943   0.364E-02    0.390E-02
RMM:   3    -0.230643866009E+04   -0.24787E-04   -0.36643E-04  3356   0.149E-02    0.383E-02
RMM:   4    -0.230643864476E+04    0.15326E-04   -0.46782E-05  2877   0.497E-03    0.189E-02
RMM:   5    -0.230643864056E+04    0.41976E-05   -0.17101E-05  2849   0.379E-03
 263 F= -.23267681E+04 E0= -.23267681E+04  d E =-.153733E-03  mag=     3.0000
       N       E                     dE             d eps       ncg     rms          rms(c)
DAV:   1    -0.230643862280E+04    0.21964E-04   -0.19881E-03  5128   0.431E-02    0.166E-02
RMM:   2    -0.230643864085E+04   -0.18055E-04   -0.20049E-04  3561   0.999E-03    0.872E-03
RMM:   3    -0.230643864276E+04   -0.19055E-05   -0.23389E-05  2721   0.565E-03
 264 F= -.23267681E+04 E0= -.23267681E+04  d E =-.154662E-03  mag=     3.0000
       N       E                     dE             d eps       ncg     rms          rms(c)
DAV:   1    -0.230643846239E+04    0.17846E-03   -0.35013E-02  4392   0.178E-01    0.661E-02
RMM:   2    -0.230643878595E+04   -0.32356E-03   -0.35202E-03  5853   0.355E-02    0.374E-02
RMM:   3    -0.230643880762E+04   -0.21666E-04   -0.33732E-04  3181   0.134E-02    0.336E-02
RMM:   4    -0.230643879700E+04    0.10625E-04   -0.47140E-05  2873   0.465E-03    0.196E-02
RMM:   5    -0.230643879198E+04    0.50169E-05   -0.16815E-05  2838   0.367E-03
 265 F= -.23267683E+04 E0= -.23267683E+04  d E =-.149394E-03  mag=     3.0000
       N       E                     dE             d eps       ncg     rms          rms(c)
DAV:   1    -0.230643876541E+04    0.31584E-04   -0.25980E-03  5072   0.489E-02    0.185E-02
RMM:   2    -0.230643879000E+04   -0.24584E-04   -0.27234E-04  3920   0.112E-02    0.967E-03
RMM:   3    -0.230643879218E+04   -0.21853E-05   -0.28842E-05  2812   0.587E-03
 266 F= -.23267683E+04 E0= -.23267683E+04  d E =-.149666E-03  mag=     3.0000
       N       E                     dE             d eps       ncg     rms          rms(c)
DAV:   1    -0.230643864803E+04    0.14196E-03   -0.30116E-02  4392   0.163E-01    0.609E-02
RMM:   2    -0.230643893958E+04   -0.29155E-03   -0.31516E-03  5908   0.329E-02    0.355E-02
RMM:   3    -0.230643895877E+04   -0.19189E-04   -0.29969E-04  3042   0.119E-02    0.315E-02
RMM:   4    -0.230643894964E+04    0.91287E-05   -0.41955E-05  2867   0.432E-03
 267 F= -.23267684E+04 E0= -.23267684E+04  d E =-.149674E-03  mag=     3.0000
       N       E                     dE             d eps       ncg     rms          rms(c)
DAV:   1    -0.230643890882E+04    0.49949E-04   -0.46234E-03  4872   0.642E-02    0.251E-02
RMM:   2    -0.230643895401E+04   -0.45186E-04   -0.49452E-04  4759   0.136E-02    0.185E-02
RMM:   3    -0.230643895816E+04   -0.41536E-05   -0.62770E-05  2843   0.649E-03
 268 F= -.23267684E+04 E0= -.23267684E+04  d E =-.155138E-03  mag=     3.0000
       N       E                     dE             d eps       ncg     rms          rms(c)
DAV:   1    -0.230643881766E+04    0.13635E-03   -0.29290E-02  4392   0.164E-01    0.638E-02
RMM:   2    -0.230643909114E+04   -0.27349E-03   -0.29662E-03  5871   0.334E-02    0.378E-02
RMM:   3    -0.230643910746E+04   -0.16313E-04   -0.28752E-04  3080   0.119E-02    0.340E-02
RMM:   4    -0.230643909598E+04    0.11472E-04   -0.40456E-05  2865   0.455E-03    0.176E-02
RMM:   5    -0.230643909197E+04    0.40084E-05   -0.16395E-05  2840   0.363E-03
 269 F= -.23267686E+04 E0= -.23267686E+04  d E =-.136748E-03  mag=     3.0000
       N       E                     dE             d eps       ncg     rms          rms(c)
DAV:   1    -0.230643908027E+04    0.15713E-04   -0.10843E-03  5128   0.319E-02    0.124E-02
RMM:   2    -0.230643909064E+04   -0.10366E-04   -0.11589E-04  3183   0.756E-03    0.594E-03
RMM:   3    -0.230643909146E+04   -0.82140E-06   -0.13081E-05  2573   0.457E-03
 270 F= -.23267686E+04 E0= -.23267686E+04  d E =-.136821E-03  mag=     3.0000
       N       E                     dE             d eps       ncg     rms          rms(c)
DAV:   1    -0.230643893162E+04    0.15902E-03   -0.27627E-02  4392   0.157E-01    0.598E-02
RMM:   2    -0.230643919512E+04   -0.26351E-03   -0.28582E-03  5855   0.316E-02    0.331E-02
RMM:   3    -0.230643921258E+04   -0.17461E-04   -0.27364E-04  3062   0.123E-02    0.305E-02
RMM:   4    -0.230643920319E+04    0.93947E-05   -0.37903E-05  2859   0.431E-03
 271 F= -.23267687E+04 E0= -.23267687E+04  d E =-.120176E-03  mag=     3.0000
       N       E                     dE             d eps       ncg     rms          rms(c)
DAV:   1    -0.230643919413E+04    0.18454E-04   -0.25132E-04  5128   0.157E-02    0.802E-03
RMM:   2    -0.230643919677E+04   -0.26395E-05   -0.33969E-05  2745   0.396E-03
 272 F= -.23267687E+04 E0= -.23267687E+04  d E =-.114642E-03  mag=     3.0000
       N       E                     dE             d eps       ncg     rms          rms(c)
DAV:   1    -0.230643907326E+04    0.12087E-03   -0.25087E-02  4392   0.152E-01    0.603E-02
RMM:   2    -0.230643930837E+04   -0.23511E-03   -0.25510E-03  5910   0.310E-02    0.345E-02
RMM:   3    -0.230643932744E+04   -0.19066E-04   -0.27667E-04  3195   0.131E-02    0.347E-02
RMM:   4    -0.230643931389E+04    0.13545E-04   -0.33470E-05  2853   0.440E-03    0.156E-02
RMM:   5    -0.230643931116E+04    0.27313E-05   -0.14637E-05  2851   0.327E-03
 273 F= -.23267688E+04 E0= -.23267688E+04  d E =-.119137E-03  mag=     3.0000
       N       E                     dE             d eps       ncg     rms          rms(c)
DAV:   1    -0.230643929949E+04    0.14401E-04   -0.11572E-03  5176   0.330E-02    0.131E-02
RMM:   2    -0.230643931074E+04   -0.11243E-04   -0.12358E-04  3168   0.776E-03    0.665E-03
RMM:   3    -0.230643931191E+04   -0.11691E-05   -0.14583E-05  2574   0.464E-03
 274 F= -.23267688E+04 E0= -.23267688E+04  d E =-.120938E-03  mag=     3.0000
       N       E                     dE             d eps       ncg     rms          rms(c)
DAV:   1    -0.230643921559E+04    0.95144E-04   -0.20571E-02  4392   0.138E-01    0.533E-02
RMM:   2    -0.230643940681E+04   -0.19122E-03   -0.21004E-03  5832   0.275E-02    0.255E-02
RMM:   3    -0.230643941756E+04   -0.10747E-04   -0.20809E-04  2971   0.113E-02    0.164E-02
RMM:   4    -0.230643941769E+04   -0.12995E-06   -0.30112E-05  2858   0.362E-03
 275 F= -.23267689E+04 E0= -.23267689E+04  d E =-.106388E-03  mag=     3.0000
       N       E                     dE             d eps       ncg     rms          rms(c)
DAV:   1    -0.230643941072E+04    0.68328E-05   -0.46009E-04  5112   0.213E-02    0.113E-02
RMM:   2    -0.230643941734E+04   -0.66207E-05   -0.56762E-05  2877   0.503E-03
 276 F= -.23267689E+04 E0= -.23267689E+04  d E =-.106142E-03  mag=     3.0000
       N       E                     dE             d eps       ncg     rms          rms(c)
DAV:   1    -0.230643934812E+04    0.62600E-04   -0.18572E-02  4392   0.131E-01    0.517E-02
RMM:   2    -0.230643951420E+04   -0.16608E-03   -0.18336E-03  5780   0.273E-02    0.249E-02
RMM:   3    -0.230643952176E+04   -0.75525E-05   -0.17345E-04  3023   0.113E-02    0.168E-02
RMM:   4    -0.230643952240E+04   -0.63892E-06   -0.26934E-05  2849   0.379E-03
 277 F= -.23267690E+04 E0= -.23267690E+04  d E =-.868328E-04  mag=     3.0000
       N       E                     dE             d eps       ncg     rms          rms(c)
DAV:   1    -0.230643951862E+04    0.31402E-05   -0.73350E-05  5080   0.946E-03    0.693E-03
RMM:   2    -0.230643952003E+04   -0.14167E-05   -0.12264E-05  2545   0.262E-03
 278 F= -.23267690E+04 E0= -.23267690E+04  d E =-.832631E-04  mag=     3.0000
       N       E                     dE             d eps       ncg     rms          rms(c)
DAV:   1    -0.230643945926E+04    0.59360E-04   -0.17483E-02  4424   0.125E-01    0.483E-02
RMM:   2    -0.230643960993E+04   -0.15068E-03   -0.16579E-03  5730   0.250E-02    0.233E-02
RMM:   3    -0.230643961746E+04   -0.75222E-05   -0.15946E-04  2974   0.112E-02    0.158E-02
RMM:   4    -0.230643961938E+04   -0.19284E-05   -0.25553E-05  2848   0.344E-03
 279 F= -.23267691E+04 E0= -.23267691E+04  d E =-.886104E-04  mag=     3.0000
       N       E                     dE             d eps       ncg     rms          rms(c)
DAV:   1    -0.230643960997E+04    0.74876E-05   -0.88359E-04  5096   0.286E-02    0.125E-02
RMM:   2    -0.230643961790E+04   -0.79288E-05   -0.91483E-05  3009   0.643E-03
 280 F= -.23267691E+04 E0= -.23267691E+04  d E =-.846541E-04  mag=     3.0000
       N       E                     dE             d eps       ncg     rms          rms(c)
DAV:   1    -0.230643956900E+04    0.40974E-04   -0.17623E-02  4424   0.124E-01    0.464E-02
RMM:   2    -0.230643971061E+04   -0.14162E-03   -0.15590E-03  5765   0.259E-02    0.253E-02
RMM:   3    -0.230643972013E+04   -0.95197E-05   -0.16479E-04  2953   0.103E-02    0.228E-02
RMM:   4    -0.230643971692E+04    0.32128E-05   -0.22672E-05  2838   0.369E-03
 281 F= -.23267692E+04 E0= -.23267692E+04  d E =-.888954E-04  mag=     3.0000
       N       E                     dE             d eps       ncg     rms          rms(c)
DAV:   1    -0.230643970945E+04    0.10685E-04   -0.87858E-04  5064   0.280E-02    0.115E-02
RMM:   2    -0.230643971651E+04   -0.70641E-05   -0.84663E-05  3000   0.640E-03
 282 F= -.23267691E+04 E0= -.23267691E+04  d E =-.861494E-04  mag=     3.0000
       N       E                     dE             d eps       ncg     rms          rms(c)
DAV:   1    -0.230643970991E+04   -0.46278E-06   -0.14793E-02  4392   0.114E-01    0.431E-02
RMM:   2    -0.230643981522E+04   -0.10531E-03   -0.11774E-03  5698   0.236E-02    0.216E-02
RMM:   3    -0.230643982119E+04   -0.59696E-05   -0.12618E-04  2911   0.959E-03    0.176E-02
RMM:   4    -0.230643982067E+04    0.51965E-06   -0.18817E-05  2834   0.352E-03
 283 F= -.23267692E+04 E0= -.23267692E+04  d E =-.969158E-04  mag=     3.0000
       N       E                     dE             d eps       ncg     rms          rms(c)
DAV:   1    -0.230643980186E+04    0.19330E-04   -0.34661E-03  4664   0.554E-02    0.213E-02
RMM:   2    -0.230643982606E+04   -0.24201E-04   -0.27425E-04  3946   0.116E-02    0.108E-02
RMM:   3    -0.230643982730E+04   -0.12403E-05   -0.29933E-05  2827   0.628E-03
 284 F= -.23267692E+04 E0= -.23267692E+04  d E =-.999941E-04  mag=     3.0000
       N       E                     dE             d eps       ncg     rms          rms(c)
DAV:   1    -0.230643979966E+04    0.26400E-04   -0.17330E-02  4392   0.123E-01    0.461E-02
RMM:   2    -0.230643991862E+04   -0.11897E-03   -0.13325E-03  5609   0.241E-02    0.231E-02
RMM:   3    -0.230643992371E+04   -0.50841E-05   -0.12496E-04  2922   0.940E-03    0.192E-02
RMM:   4    -0.230643992230E+04    0.14074E-05   -0.21171E-05  2841   0.355E-03
 285 F= -.23267693E+04 E0= -.23267693E+04  d E =-.950910E-04  mag=     3.0000
       N       E                     dE             d eps       ncg     rms          rms(c)
DAV:   1    -0.230643991456E+04    0.91518E-05   -0.71758E-04  5048   0.253E-02    0.102E-02
RMM:   2    -0.230643991984E+04   -0.52820E-05   -0.61521E-05  2910   0.571E-03
 286 F= -.23267693E+04 E0= -.23267693E+04  d E =-.926559E-04  mag=     3.0000
       N       E                     dE             d eps       ncg     rms          rms(c)
DAV:   1    -0.230643992628E+04   -0.11728E-04   -0.16824E-02  4392   0.123E-01    0.481E-02
RMM:   2    -0.230644003458E+04   -0.10830E-03   -0.12383E-03  5698   0.251E-02    0.231E-02
RMM:   3    -0.230644003968E+04   -0.50981E-05   -0.13601E-04  3009   0.109E-02    0.202E-02
RMM:   4    -0.230644003781E+04    0.18744E-05   -0.20288E-05  2833   0.372E-03
 287 F= -.23267694E+04 E0= -.23267694E+04  d E =-.905420E-04  mag=     3.0000
       N       E                     dE             d eps       ncg     rms          rms(c)
DAV:   1    -0.230644003583E+04    0.38548E-05   -0.39833E-04  5064   0.192E-02    0.868E-03
RMM:   2    -0.230644003877E+04   -0.29437E-05   -0.34620E-05  2734   0.458E-03
 288 F= -.23267694E+04 E0= -.23267694E+04  d E =-.870338E-04  mag=     3.0000
       N       E                     dE             d eps       ncg     rms          rms(c)
DAV:   1    -0.230644002382E+04    0.12003E-04   -0.15366E-02  4392   0.114E-01    0.450E-02
RMM:   2    -0.230644013015E+04   -0.10633E-03   -0.12021E-03  5664   0.234E-02    0.233E-02
RMM:   3    -0.230644013482E+04   -0.46674E-05   -0.11827E-04  2927   0.101E-02    0.206E-02
RMM:   4    -0.230644013286E+04    0.19554E-05   -0.18811E-05  2843   0.350E-03
 289 F= -.23267695E+04 E0= -.23267695E+04  d E =-.743469E-04  mag=     3.0000
       N       E                     dE             d eps       ncg     rms          rms(c)
DAV:   1    -0.230644013118E+04    0.36327E-05   -0.72474E-05  5104   0.875E-03    0.646E-03
RMM:   2    -0.230644013293E+04   -0.17422E-05   -0.11837E-05  2531   0.249E-03
 290 F= -.23267695E+04 E0= -.23267695E+04  d E =-.729184E-04  mag=     3.0000
       N       E                     dE             d eps       ncg     rms          rms(c)
DAV:   1    -0.230644008518E+04    0.46004E-04   -0.15331E-02  4392   0.116E-01    0.465E-02
RMM:   2    -0.230644019362E+04   -0.10844E-03   -0.12364E-03  5602   0.233E-02    0.215E-02
RMM:   3    -0.230644019734E+04   -0.37207E-05   -0.12289E-04  2969   0.110E-02    0.132E-02
RMM:   4    -0.230644019699E+04    0.35009E-06   -0.20929E-05  2854   0.337E-03
 291 F= -.23267696E+04 E0= -.23267696E+04  d E =-.702667E-04  mag=     3.0000
       N       E                     dE             d eps       ncg     rms          rms(c)
DAV:   1    -0.230644019575E+04    0.15870E-05   -0.12199E-05  3920   0.487E-03    0.730E-03
RMM:   2    -0.230644019818E+04   -0.24280E-05   -0.88829E-06  2484   0.235E-03
 292 F= -.23267696E+04 E0= -.23267696E+04  d E =-.716175E-04  mag=     3.0000
       N       E                     dE             d eps       ncg     rms          rms(c)
DAV:   1    -0.230644012931E+04    0.66442E-04   -0.12729E-02  4392   0.102E-01    0.414E-02
RMM:   2    -0.230644024382E+04   -0.11451E-03   -0.12653E-03  5602   0.218E-02    0.210E-02
RMM:   3    -0.230644024919E+04   -0.53749E-05   -0.12215E-04  2883   0.927E-03    0.145E-02
RMM:   4    -0.230644024870E+04    0.49773E-06   -0.16334E-05  2846   0.283E-03
 293 F= -.23267696E+04 E0= -.23267696E+04  d E =-.603086E-04  mag=     3.0000
       N       E                     dE             d eps       ncg     rms          rms(c)
DAV:   1    -0.230644024754E+04    0.16543E-05   -0.96945E-06  3928   0.439E-03    0.809E-03
RMM:   2    -0.230644025103E+04   -0.34858E-05   -0.11463E-05  2425   0.224E-03
 294 F= -.23267696E+04 E0= -.23267696E+04  d E =-.628891E-04  mag=     3.0000
       N       E                     dE             d eps       ncg     rms          rms(c)
DAV:   1    -0.230644022380E+04    0.23740E-04   -0.97541E-03  4392   0.916E-02    0.390E-02
RMM:   2    -0.230644031220E+04   -0.88403E-04   -0.99595E-04  5458   0.194E-02    0.184E-02
RMM:   3    -0.230644031657E+04   -0.43646E-05   -0.94078E-05  2874   0.841E-03
 295 F= -.23267697E+04 E0= -.23267697E+04  d E =-.509360E-04  mag=     3.0000
       N       E                     dE             d eps       ncg     rms          rms(c)
DAV:   1    -0.230644031692E+04   -0.47130E-05   -0.33035E-05  3992   0.599E-03    0.131E-02
RMM:   2    -0.230644032287E+04   -0.59591E-05   -0.25096E-05  2668   0.356E-03
 296 F= -.23267697E+04 E0= -.23267697E+04  d E =-.564724E-04  mag=     3.0000
       N       E                     dE             d eps       ncg     rms          rms(c)
DAV:   1    -0.230644028961E+04    0.27306E-04   -0.85012E-03  4392   0.819E-02    0.341E-02
RMM:   2    -0.230644037637E+04   -0.86760E-04   -0.95765E-04  5542   0.177E-02    0.185E-02
RMM:   3    -0.230644038108E+04   -0.47132E-05   -0.88646E-05  2860   0.784E-03
 297 F= -.23267697E+04 E0= -.23267697E+04  d E =-.464942E-04  mag=     3.0000
       N       E                     dE             d eps       ncg     rms          rms(c)
DAV:   1    -0.230644038156E+04   -0.51938E-05   -0.25338E-05  3968   0.505E-03    0.119E-02
RMM:   2    -0.230644038554E+04   -0.39734E-05   -0.18041E-05  2517   0.312E-03
 298 F= -.23267697E+04 E0= -.23267697E+04  d E =-.504064E-04  mag=     3.0000
       N       E                     dE             d eps       ncg     rms          rms(c)
DAV:   1    -0.230644033562E+04    0.45943E-04   -0.89916E-03  4392   0.865E-02    0.359E-02
RMM:   2    -0.230644042382E+04   -0.88200E-04   -0.97998E-04  5569   0.186E-02    0.190E-02
RMM:   3    -0.230644042905E+04   -0.52320E-05   -0.97476E-05  2872   0.851E-03
 299 F= -.23267698E+04 E0= -.23267698E+04  d E =-.448668E-04  mag=     3.0000
       N       E                     dE             d eps       ncg     rms          rms(c)
DAV:   1    -0.230644042866E+04   -0.48364E-05   -0.12849E-05  3712   0.421E-03    0.123E-02
RMM:   2    -0.230644043260E+04   -0.39480E-05   -0.16397E-05  2529   0.273E-03
 300 F= -.23267698E+04 E0= -.23267698E+04  d E =-.484296E-04  mag=     3.0000
       N       E                     dE             d eps       ncg     rms          rms(c)
DAV:   1    -0.230644038367E+04    0.44991E-04   -0.72707E-03  4392   0.794E-02    0.326E-02
RMM:   2    -0.230644045716E+04   -0.73498E-04   -0.80858E-04  5412   0.173E-02    0.172E-02
RMM:   3    -0.230644046173E+04   -0.45636E-05   -0.79567E-05  2846   0.785E-03
 301 F= -.23267698E+04 E0= -.23267698E+04  d E =-.403367E-04  mag=     3.0000
