       N       E                     dE             d eps       ncg     rms          rms(c)
DAV:   1     0.124685024907E+05    0.12469E+05   -0.82210E+05  4424   0.143E+03
DAV:   2    -0.110293888090E+04   -0.13571E+05   -0.13020E+05  5360   0.329E+02
DAV:   3    -0.247970606810E+04   -0.13768E+04   -0.13656E+04  5256   0.108E+02
DAV:   4    -0.251787961823E+04   -0.38174E+02   -0.37998E+02  6312   0.251E+01
DAV:   5    -0.251864464237E+04   -0.76502E+00   -0.76404E+00  5456   0.291E+00    0.171E+02
RMM:   6    -0.146533586592E+04    0.10533E+04   -0.19521E+03  4350   0.390E+01    0.726E+01
RMM:   7    -0.163692815884E+04   -0.17159E+03   -0.27421E+02  4918   0.141E+01    0.490E+01
RMM:   8    -0.169590998067E+04   -0.58982E+02   -0.44073E+01  4853   0.732E+00    0.360E+01
RMM:   9    -0.183402698947E+04   -0.13812E+03   -0.66933E+01  4684   0.832E+00    0.230E+01
RMM:  10    -0.198681827316E+04   -0.15279E+03   -0.65052E+01  4714   0.740E+00    0.160E+01
RMM:  11    -0.211580107882E+04   -0.12898E+03   -0.76030E+01  4542   0.652E+00    0.123E+01
RMM:  12    -0.228160184836E+04   -0.16580E+03   -0.17938E+02  4352   0.887E+00    0.591E+00
RMM:  13    -0.230474381135E+04   -0.23142E+02   -0.27973E+01  4464   0.478E+00    0.402E+00
RMM:  14    -0.231288928659E+04   -0.81455E+01   -0.11200E+01  4546   0.238E+00    0.217E+00
RMM:  15    -0.231494991291E+04   -0.20606E+01   -0.18838E+00  4814   0.137E+00    0.148E+00
RMM:  16    -0.231548329864E+04   -0.53339E+00   -0.38031E-01  4872   0.448E-01    0.903E-01
RMM:  17    -0.231586991465E+04   -0.38662E+00   -0.10982E-01  4489   0.324E-01    0.482E-01
RMM:  18    -0.231595252091E+04   -0.82606E-01   -0.56202E-02  4543   0.191E-01    0.239E-01
RMM:  19    -0.231595977673E+04   -0.72558E-02   -0.81315E-03  4777   0.117E-01    0.193E-01
RMM:  20    -0.231596711360E+04   -0.73369E-02   -0.32078E-03  4551   0.393E-02    0.133E-01
RMM:  21    -0.231598394908E+04   -0.16835E-01   -0.45584E-03  4368   0.552E-02    0.757E-02
RMM:  22    -0.231599331980E+04   -0.93707E-02   -0.31875E-03  4474   0.473E-02    0.547E-02
RMM:  23    -0.231599900666E+04   -0.56869E-02   -0.19309E-03  4491   0.374E-02    0.355E-02
RMM:  24    -0.231600129518E+04   -0.22885E-02   -0.82802E-04  4264   0.243E-02    0.208E-02
RMM:  25    -0.231600310524E+04   -0.18101E-02   -0.64026E-04  3972   0.191E-02    0.115E-02
RMM:  26    -0.231600335418E+04   -0.24894E-03   -0.13115E-04  3648   0.131E-02    0.737E-03
RMM:  27    -0.231600352011E+04   -0.16593E-03   -0.58262E-05  3486   0.674E-03    0.513E-03
RMM:  28    -0.231600363360E+04   -0.11348E-03   -0.35298E-05  3256   0.616E-03    0.285E-03
RMM:  29    -0.231600367642E+04   -0.42820E-04   -0.17767E-05  2969   0.442E-03    0.201E-03
RMM:  30    -0.231600369807E+04   -0.21651E-04   -0.95099E-06  2818   0.337E-03    0.109E-03
RMM:  31    -0.231600370460E+04   -0.65299E-05   -0.50957E-06  2425   0.255E-03
   1 F= -.23361354E+04 E0= -.23361354E+04  d E =-.233614E+04  mag=     1.0000
       N       E                     dE             d eps       ncg     rms          rms(c)
DAV:   1    -0.231610145036E+04   -0.97752E-01   -0.83039E+00  5000   0.192E+00    0.656E-01
RMM:   2    -0.231615017366E+04   -0.48723E-01   -0.52553E-01  5875   0.401E-01    0.450E-01
RMM:   3    -0.231615126364E+04   -0.10900E-02   -0.41201E-02  5218   0.118E-01    0.314E-01
RMM:   4    -0.231615083950E+04    0.42415E-03   -0.10018E-02  5097   0.469E-02    0.181E-01
RMM:   5    -0.231615036516E+04    0.47434E-03   -0.18982E-03  5151   0.266E-02    0.597E-02
RMM:   6    -0.231615030178E+04    0.63381E-04   -0.26018E-04  3899   0.817E-03    0.375E-02
RMM:   7    -0.231615027691E+04    0.24869E-04   -0.81215E-05  3209   0.670E-03    0.223E-02
RMM:   8    -0.231615026629E+04    0.10621E-04   -0.26497E-05  2880   0.490E-03    0.129E-02
RMM:   9    -0.231615026134E+04    0.49458E-05   -0.14124E-05  2815   0.409E-03
   2 F= -.23362822E+04 E0= -.23362822E+04  d E =-.146821E+00  mag=     1.0000
       N       E                     dE             d eps       ncg     rms          rms(c)
DAV:   1    -0.231615239936E+04   -0.21331E-02   -0.31171E-01  4820   0.376E-01    0.127E-01
RMM:   2    -0.231615416222E+04   -0.17629E-02   -0.19138E-02  5990   0.751E-02    0.874E-02
RMM:   3    -0.231615418971E+04   -0.27493E-04   -0.14224E-03  4359   0.210E-02    0.603E-02
RMM:   4    -0.231615416286E+04    0.26857E-04   -0.35739E-04  4027   0.926E-03    0.290E-02
RMM:   5    -0.231615415034E+04    0.12513E-04   -0.48970E-05  2948   0.634E-03    0.114E-02
RMM:   6    -0.231615414777E+04    0.25712E-05   -0.11669E-05  2799   0.287E-03
   3 F= -.23362862E+04 E0= -.23362862E+04  d E =-.150774E+00  mag=     1.0000
       N       E                     dE             d eps       ncg     rms          rms(c)
DAV:   1    -0.231621321756E+04   -0.59067E-01   -0.40856E+00  4528   0.158E+00    0.688E-01
RMM:   2    -0.231625846675E+04   -0.45249E-01   -0.49012E-01  6242   0.343E-01    0.399E-01
RMM:   3    -0.231626288237E+04   -0.44156E-02   -0.65902E-02  5282   0.115E-01    0.296E-01
RMM:   4    -0.231626282963E+04    0.52737E-04   -0.78383E-03  5428   0.354E-02    0.202E-01
RMM:   5    -0.231626234033E+04    0.48930E-03   -0.15293E-03  4469   0.192E-02    0.635E-02
RMM:   6    -0.231626233406E+04    0.62757E-05   -0.18269E-04  3693   0.128E-02    0.243E-02
RMM:   7    -0.231626232965E+04    0.44069E-05   -0.52353E-05  2943   0.495E-03
   4 F= -.23363953E+04 E0= -.23363953E+04  d E =-.109139E+00  mag=     1.0000
       N       E                     dE             d eps       ncg     rms          rms(c)
DAV:   1    -0.231624463198E+04    0.17702E-01   -0.46134E+00  4496   0.167E+00    0.727E-01
RMM:   2    -0.231629626868E+04   -0.51637E-01   -0.55942E-01  6247   0.366E-01    0.422E-01
RMM:   3    -0.231630138311E+04   -0.51144E-02   -0.75322E-02  5348   0.122E-01    0.316E-01
RMM:   4    -0.231630121856E+04    0.16455E-03   -0.87575E-03  5419   0.372E-02    0.212E-01
RMM:   5    -0.231630068503E+04    0.53353E-03   -0.16689E-03  4400   0.204E-02    0.666E-02
RMM:   6    -0.231630068013E+04    0.48985E-05   -0.21381E-04  3843   0.142E-02    0.264E-02
RMM:   7    -0.231630067400E+04    0.61339E-05   -0.64687E-05  3076   0.516E-03
   5 F= -.23364346E+04 E0= -.23364346E+04  d E =-.148449E+00  mag=     1.0000
       N       E                     dE             d eps       ncg     rms          rms(c)
DAV:   1    -0.231623323686E+04    0.67443E-01   -0.67790E+00  4464   0.202E+00    0.889E-01
RMM:   2    -0.231634475871E+04   -0.11152E+00   -0.11907E+00  6243   0.520E-01    0.488E-01
RMM:   3    -0.231635497416E+04   -0.10215E-01   -0.15189E-01  5439   0.163E-01    0.412E-01
RMM:   4    -0.231635487029E+04    0.10387E-03   -0.19265E-02  5480   0.445E-02    0.264E-01
RMM:   5    -0.231635399368E+04    0.87661E-03   -0.26853E-03  4667   0.246E-02    0.144E-01
RMM:   6    -0.231635376610E+04    0.22759E-03   -0.10323E-03  4699   0.233E-02    0.481E-02
RMM:   7    -0.231635376338E+04    0.27118E-05   -0.21520E-04  4305   0.102E-02    0.303E-02
RMM:   8    -0.231635375517E+04    0.82173E-05   -0.29520E-05  2918   0.600E-03
   6 F= -.23364882E+04 E0= -.23364882E+04  d E =-.536041E-01  mag=     1.0000
       N       E                     dE             d eps       ncg     rms          rms(c)
DAV:   1    -0.231635189913E+04    0.18643E-02   -0.14932E-01  5056   0.304E-01    0.135E-01
RMM:   2    -0.231635441806E+04   -0.25189E-02   -0.27066E-02  6231   0.767E-02    0.750E-02
RMM:   3    -0.231635465684E+04   -0.23877E-03   -0.34987E-03  4381   0.255E-02    0.602E-02
RMM:   4    -0.231635465608E+04    0.75898E-06   -0.43942E-04  2998   0.727E-03    0.394E-02
RMM:   5    -0.231635463108E+04    0.25001E-04   -0.67238E-05  3091   0.512E-03    0.187E-02
RMM:   6    -0.231635462516E+04    0.59224E-05   -0.22959E-05  2850   0.519E-03
   7 F= -.23364892E+04 E0= -.23364892E+04  d E =-.545407E-01  mag=     1.0000
       N       E                     dE             d eps       ncg     rms          rms(c)
DAV:   1    -0.231632810736E+04    0.26524E-01   -0.34839E+00  4432   0.150E+00    0.675E-01
RMM:   2    -0.231638460494E+04   -0.56498E-01   -0.61049E-01  6230   0.362E-01    0.327E-01
RMM:   3    -0.231639025460E+04   -0.56497E-02   -0.78665E-02  5552   0.121E-01    0.282E-01
RMM:   4    -0.231639051397E+04   -0.25937E-03   -0.94866E-03  5289   0.289E-02    0.187E-01
RMM:   5    -0.231639019365E+04    0.32031E-03   -0.99432E-04  4623   0.155E-02    0.124E-01
RMM:   6    -0.231639004721E+04    0.14644E-03   -0.56349E-04  4706   0.158E-02    0.438E-02
RMM:   7    -0.231639003348E+04    0.13723E-04   -0.15570E-04  3706   0.846E-03    0.219E-02
RMM:   8    -0.231639003129E+04    0.21947E-05   -0.17681E-05  2817   0.456E-03
   8 F= -.23365243E+04 E0= -.23365243E+04  d E =-.351489E-01  mag=     1.0000
       N       E                     dE             d eps       ncg     rms          rms(c)
DAV:   1    -0.231637953478E+04    0.10499E-01   -0.83245E-01  4544   0.729E-01    0.329E-01
RMM:   2    -0.231639293292E+04   -0.13398E-01   -0.14458E-01  6223   0.173E-01    0.160E-01
RMM:   3    -0.231639427014E+04   -0.13372E-02   -0.18644E-02  5439   0.602E-02    0.134E-01
RMM:   4    -0.231639433328E+04   -0.63141E-04   -0.22603E-03  3918   0.144E-02    0.893E-02
RMM:   5    -0.231639424225E+04    0.91036E-04   -0.24215E-04  3964   0.876E-03    0.556E-02
RMM:   6    -0.231639420624E+04    0.36010E-04   -0.13414E-04  3781   0.881E-03    0.182E-02
RMM:   7    -0.231639420174E+04    0.45018E-05   -0.31734E-05  2897   0.539E-03
   9 F= -.23365284E+04 E0= -.23365284E+04  d E =-.391871E-01  mag=     1.0000
       N       E                     dE             d eps       ncg     rms          rms(c)
DAV:   1    -0.231638004694E+04    0.14159E-01   -0.34423E+00  4400   0.161E+00    0.646E-01
RMM:   2    -0.231641800191E+04   -0.37955E-01   -0.41712E-01  5995   0.317E-01    0.336E-01
RMM:   3    -0.231642054557E+04   -0.25437E-02   -0.43549E-02  5188   0.112E-01    0.246E-01
RMM:   4    -0.231642051496E+04    0.30607E-04   -0.55355E-03  5136   0.329E-02    0.170E-01
RMM:   5    -0.231642023158E+04    0.28338E-03   -0.12001E-03  4870   0.215E-02    0.897E-02
RMM:   6    -0.231642015190E+04    0.79680E-04   -0.33002E-04  4398   0.135E-02    0.352E-02
RMM:   7    -0.231642013693E+04    0.14973E-04   -0.70606E-05  3195   0.782E-03    0.166E-02
RMM:   8    -0.231642013471E+04    0.22142E-05   -0.15715E-05  2822   0.406E-03
  10 F= -.23365542E+04 E0= -.23365542E+04  d E =-.258587E-01  mag=     1.0000
       N       E                     dE             d eps       ncg     rms          rms(c)
DAV:   1    -0.231641685415E+04    0.32828E-02   -0.46663E-01  4672   0.591E-01    0.237E-01
RMM:   2    -0.231642199424E+04   -0.51401E-02   -0.56389E-02  5955   0.114E-01    0.124E-01
RMM:   3    -0.231642226598E+04   -0.27174E-03   -0.50042E-03  5051   0.437E-02    0.880E-02
RMM:   4    -0.231642225361E+04    0.12366E-04   -0.74364E-04  4259   0.128E-02    0.593E-02
RMM:   5    -0.231642221166E+04    0.41952E-04   -0.17094E-04  3940   0.922E-03    0.276E-02
RMM:   6    -0.231642220094E+04    0.10718E-04   -0.35539E-05  2890   0.587E-03    0.114E-02
RMM:   7    -0.231642219885E+04    0.20908E-05   -0.10681E-05  2815   0.386E-03
  11 F= -.23365563E+04 E0= -.23365563E+04  d E =-.278876E-01  mag=     1.0000
       N       E                     dE             d eps       ncg     rms          rms(c)
DAV:   1    -0.231641647215E+04    0.57288E-02   -0.16668E+00  4400   0.972E-01    0.405E-01
RMM:   2    -0.231644259928E+04   -0.26127E-01   -0.28117E-01  6023   0.191E-01    0.264E-01
RMM:   3    -0.231644456413E+04   -0.19648E-02   -0.24974E-02  4948   0.943E-02    0.188E-01
RMM:   4    -0.231644456488E+04   -0.75341E-06   -0.32197E-03  4838   0.195E-02    0.128E-01
RMM:   5    -0.231644446844E+04    0.96439E-04   -0.67702E-04  4424   0.135E-02    0.498E-02
RMM:   6    -0.231644445253E+04    0.15915E-04   -0.10415E-04  3189   0.786E-03    0.242E-02
RMM:   7    -0.231644444522E+04    0.73074E-05   -0.31310E-05  2827   0.434E-03
  12 F= -.23365785E+04 E0= -.23365785E+04  d E =-.222097E-01  mag=     1.0000
       N       E                     dE             d eps       ncg     rms          rms(c)
DAV:   1    -0.231629515853E+04    0.14929E+00   -0.10283E+01  4376   0.242E+00    0.101E+00
RMM:   2    -0.231645945690E+04   -0.16430E+00   -0.17453E+00  6223   0.481E-01    0.679E-01
RMM:   3    -0.231647266976E+04   -0.13213E-01   -0.16888E-01  5489   0.193E-01    0.506E-01
RMM:   4    -0.231647251968E+04    0.15008E-03   -0.21043E-02  5887   0.466E-02    0.368E-01
RMM:   5    -0.231647117507E+04    0.13446E-02   -0.38621E-03  4633   0.279E-02    0.162E-01
RMM:   6    -0.231647115625E+04    0.18825E-04   -0.12093E-03  4506   0.234E-02    0.717E-02
RMM:   7    -0.231647110191E+04    0.54342E-04   -0.22631E-04  3643   0.914E-03    0.422E-02
RMM:   8    -0.231647108781E+04    0.14101E-04   -0.86968E-05  2904   0.555E-03    0.240E-02
RMM:   9    -0.231647108081E+04    0.69952E-05   -0.27097E-05  2832   0.379E-03
  13 F= -.23366050E+04 E0= -.23366050E+04  d E =-.486993E-01  mag=     1.0000
       N       E                     dE             d eps       ncg     rms          rms(c)
DAV:   1    -0.231644497983E+04    0.26108E-01   -0.20661E+00  4400   0.101E+00    0.503E-01
RMM:   2    -0.231648688508E+04   -0.41905E-01   -0.45690E-01  6088   0.232E-01    0.332E-01
RMM:   3    -0.231649010922E+04   -0.32241E-02   -0.42271E-02  5244   0.110E-01    0.235E-01
RMM:   4    -0.231649017012E+04   -0.60899E-04   -0.53139E-03  5195   0.242E-02    0.164E-01
RMM:   5    -0.231648988548E+04    0.28464E-03   -0.95703E-04  4799   0.158E-02    0.623E-02
RMM:   6    -0.231648987510E+04    0.10382E-04   -0.16457E-04  3613   0.994E-03    0.250E-02
RMM:   7    -0.231648986184E+04    0.13257E-04   -0.37651E-05  2851   0.519E-03    0.115E-02
RMM:   8    -0.231648986007E+04    0.17714E-05   -0.18428E-05  2828   0.330E-03
  14 F= -.23366234E+04 E0= -.23366234E+04  d E =-.184371E-01  mag=     1.0000
       N       E                     dE             d eps       ncg     rms          rms(c)
DAV:   1    -0.231647073886E+04    0.19123E-01   -0.10814E+00  4448   0.733E-01    0.363E-01
RMM:   2    -0.231649277199E+04   -0.22033E-01   -0.24009E-01  6094   0.168E-01    0.237E-01
RMM:   3    -0.231649432101E+04   -0.15490E-02   -0.20672E-02  5118   0.762E-02    0.165E-01
RMM:   4    -0.231649431089E+04    0.10123E-04   -0.26056E-03  4759   0.177E-02    0.113E-01
RMM:   5    -0.231649418226E+04    0.12862E-03   -0.52417E-04  4624   0.123E-02    0.399E-02
RMM:   6    -0.231649417466E+04    0.76029E-05   -0.71380E-05  3015   0.710E-03
  15 F= -.23366275E+04 E0= -.23366275E+04  d E =-.225159E-01  mag=     1.0000
       N       E                     dE             d eps       ncg     rms          rms(c)
DAV:   1    -0.231645536088E+04    0.38821E-01   -0.23542E+00  4388   0.108E+00    0.538E-01
RMM:   2    -0.231650261055E+04   -0.47250E-01   -0.51835E-01  6241   0.247E-01    0.340E-01
RMM:   3    -0.231650675131E+04   -0.41408E-02   -0.51984E-02  5368   0.937E-02    0.239E-01
RMM:   4    -0.231650679868E+04   -0.47364E-04   -0.59390E-03  5218   0.233E-02    0.168E-01
RMM:   5    -0.231650648491E+04    0.31377E-03   -0.93345E-04  4673   0.148E-02    0.663E-02
RMM:   6    -0.231650647839E+04    0.65208E-05   -0.21496E-04  3913   0.108E-02    0.260E-02
RMM:   7    -0.231650646212E+04    0.16270E-04   -0.36529E-05  2855   0.506E-03    0.126E-02
RMM:   8    -0.231650645809E+04    0.40273E-05   -0.22490E-05  2831   0.337E-03
  16 F= -.23366395E+04 E0= -.23366395E+04  d E =-.120574E-01  mag=     1.0000
       N       E                     dE             d eps       ncg     rms          rms(c)
DAV:   1    -0.231648597978E+04    0.20482E-01   -0.10594E+00  4400   0.723E-01    0.361E-01
RMM:   2    -0.231650740603E+04   -0.21426E-01   -0.23448E-01  6238   0.167E-01    0.225E-01
RMM:   3    -0.231650908801E+04   -0.16820E-02   -0.21475E-02  5285   0.622E-02    0.155E-01
RMM:   4    -0.231650909370E+04   -0.56907E-05   -0.25095E-03  4590   0.158E-02    0.106E-01
RMM:   5    -0.231650897484E+04    0.11887E-03   -0.44614E-04  4496   0.110E-02    0.373E-02
RMM:   6    -0.231650896964E+04    0.51995E-05   -0.71234E-05  2996   0.724E-03
  17 F= -.23366419E+04 E0= -.23366419E+04  d E =-.144225E-01  mag=     1.0000
       N       E                     dE             d eps       ncg     rms          rms(c)
DAV:   1    -0.231645870901E+04    0.50266E-01   -0.29574E+00  4376   0.121E+00    0.588E-01
RMM:   2    -0.231651664489E+04   -0.57936E-01   -0.63094E-01  6187   0.274E-01    0.375E-01
RMM:   3    -0.231652197944E+04   -0.53345E-02   -0.67419E-02  5359   0.119E-01    0.262E-01
RMM:   4    -0.231652202855E+04   -0.49119E-04   -0.72162E-03  5397   0.261E-02    0.184E-01
RMM:   5    -0.231652162696E+04    0.40160E-03   -0.11195E-03  4718   0.157E-02    0.752E-02
RMM:   6    -0.231652161621E+04    0.10744E-04   -0.31253E-04  4196   0.121E-02    0.285E-02
RMM:   7    -0.231652159773E+04    0.18478E-04   -0.39544E-05  2867   0.553E-03    0.152E-02
RMM:   8    -0.231652159253E+04    0.52038E-05   -0.29538E-05  2833   0.360E-03
  18 F= -.23366541E+04 E0= -.23366541E+04  d E =-.122263E-01  mag=     1.0000
       N       E                     dE             d eps       ncg     rms          rms(c)
DAV:   1    -0.231650270503E+04    0.18893E-01   -0.97496E-01  4432   0.697E-01    0.338E-01
RMM:   2    -0.231652224838E+04   -0.19543E-01   -0.21195E-01  6199   0.158E-01    0.213E-01
RMM:   3    -0.231652382305E+04   -0.15747E-02   -0.20200E-02  5209   0.653E-02    0.145E-01
RMM:   4    -0.231652383016E+04   -0.71070E-05   -0.22479E-03  4575   0.151E-02    0.102E-01
RMM:   5    -0.231652370759E+04    0.12257E-03   -0.40143E-04  4274   0.104E-02    0.352E-02
RMM:   6    -0.231652370588E+04    0.17096E-05   -0.67280E-05  2980   0.722E-03
  19 F= -.23366560E+04 E0= -.23366560E+04  d E =-.141115E-01  mag=     1.0000
       N       E                     dE             d eps       ncg     rms          rms(c)
DAV:   1    -0.231648469332E+04    0.39014E-01   -0.27446E+00  4376   0.126E+00    0.547E-01
RMM:   2    -0.231653088557E+04   -0.46192E-01   -0.50320E-01  6247   0.269E-01    0.343E-01
RMM:   3    -0.231653469066E+04   -0.38051E-02   -0.51461E-02  5510   0.895E-02    0.252E-01
RMM:   4    -0.231653462626E+04    0.64402E-04   -0.61057E-03  5272   0.254E-02    0.174E-01
RMM:   5    -0.231653423719E+04    0.38907E-03   -0.11552E-03  4632   0.163E-02    0.731E-02
RMM:   6    -0.231653421453E+04    0.22659E-04   -0.27567E-04  4094   0.129E-02    0.297E-02
RMM:   7    -0.231653419732E+04    0.17216E-04   -0.42426E-05  2917   0.558E-03    0.179E-02
RMM:   8    -0.231653419099E+04    0.63263E-05   -0.24889E-05  2839   0.362E-03
  20 F= -.23366655E+04 E0= -.23366655E+04  d E =-.952067E-02  mag=     1.0000
       N       E                     dE             d eps       ncg     rms          rms(c)
DAV:   1    -0.231653224413E+04    0.19532E-02   -0.14284E-01  4688   0.287E-01    0.124E-01
RMM:   2    -0.231653464818E+04   -0.24041E-02   -0.26103E-02  6139   0.600E-02    0.773E-02
RMM:   3    -0.231653480367E+04   -0.15549E-03   -0.22016E-03  3817   0.229E-02    0.541E-02
RMM:   4    -0.231653479823E+04    0.54358E-05   -0.29922E-04  3023   0.672E-03    0.371E-02
RMM:   5    -0.231653477976E+04    0.18469E-04   -0.68348E-05  3041   0.538E-03    0.124E-02
RMM:   6    -0.231653477939E+04    0.37128E-06   -0.10233E-05  2809   0.420E-03
  21 F= -.23366659E+04 E0= -.23366659E+04  d E =-.988851E-02  mag=     1.0000
       N       E                     dE             d eps       ncg     rms          rms(c)
DAV:   1    -0.231651777829E+04    0.17001E-01   -0.16086E+00  4400   0.106E+00    0.431E-01
RMM:   2    -0.231654184547E+04   -0.24067E-01   -0.26500E-01  6204   0.229E-01    0.249E-01
RMM:   3    -0.231654361295E+04   -0.17675E-02   -0.26705E-02  5539   0.756E-02    0.180E-01
RMM:   4    -0.231654362070E+04   -0.77504E-05   -0.36703E-03  4742   0.211E-02    0.117E-01
RMM:   5    -0.231654349465E+04    0.12605E-03   -0.61702E-04  4523   0.134E-02    0.540E-02
RMM:   6    -0.231654346550E+04    0.29143E-04   -0.13595E-04  3545   0.977E-03    0.205E-02
RMM:   7    -0.231654345972E+04    0.57798E-05   -0.31625E-05  2878   0.494E-03
  22 F= -.23366738E+04 E0= -.23366738E+04  d E =-.788895E-02  mag=     1.0000
       N       E                     dE             d eps       ncg     rms          rms(c)
DAV:   1    -0.231654135212E+04    0.21134E-02   -0.18211E-01  4576   0.355E-01    0.146E-01
RMM:   2    -0.231654411430E+04   -0.27622E-02   -0.30416E-02  6158   0.765E-02    0.832E-02
RMM:   3    -0.231654427566E+04   -0.16135E-03   -0.25037E-03  4155   0.249E-02    0.572E-02
RMM:   4    -0.231654427210E+04    0.35593E-05   -0.39642E-04  3077   0.794E-03    0.334E-02
RMM:   5    -0.231654426509E+04    0.70035E-05   -0.61153E-05  3031   0.574E-03
  23 F= -.23366743E+04 E0= -.23366743E+04  d E =-.842336E-02  mag=     1.0000
       N       E                     dE             d eps       ncg     rms          rms(c)
DAV:   1    -0.231654498622E+04   -0.71412E-03   -0.86205E-01  4400   0.908E-01    0.283E-01
RMM:   2    -0.231654961513E+04   -0.46289E-02   -0.53310E-02  5874   0.154E-01    0.142E-01
RMM:   3    -0.231654968212E+04   -0.66994E-04   -0.44159E-03  4904   0.586E-02    0.920E-02
RMM:   4    -0.231654964541E+04    0.36710E-04   -0.98582E-04  4970   0.197E-02    0.538E-02
RMM:   5    -0.231654959716E+04    0.48252E-04   -0.17392E-04  4434   0.118E-02    0.182E-02
RMM:   6    -0.231654959119E+04    0.59649E-05   -0.28962E-05  2866   0.437E-03
  24 F= -.23366794E+04 E0= -.23366794E+04  d E =-.513095E-02  mag=     1.0000
       N       E                     dE             d eps       ncg     rms          rms(c)
DAV:   1    -0.231654941910E+04    0.17806E-03   -0.12049E-01  4704   0.340E-01    0.106E-01
RMM:   2    -0.231655006832E+04   -0.64922E-03   -0.74883E-03  5874   0.584E-02    0.536E-02
RMM:   3    -0.231655007025E+04   -0.19248E-05   -0.57870E-04  4075   0.220E-02    0.350E-02
RMM:   4    -0.231655005925E+04    0.10992E-04   -0.12776E-04  3624   0.787E-03    0.188E-02
RMM:   5    -0.231655005475E+04    0.45044E-05   -0.22538E-05  2833   0.571E-03
  25 F= -.23366798E+04 E0= -.23366798E+04  d E =-.552011E-02  mag=     1.0000
       N       E                     dE             d eps       ncg     rms          rms(c)
DAV:   1    -0.231655389217E+04   -0.38329E-02   -0.35118E-01  4400   0.562E-01    0.140E-01
RMM:   2    -0.231655449884E+04   -0.60667E-03   -0.70602E-03  4930   0.798E-02    0.761E-02
RMM:   3    -0.231655443213E+04    0.66713E-04   -0.51383E-04  4844   0.374E-02    0.467E-02
RMM:   4    -0.231655441864E+04    0.13485E-04   -0.18309E-04  4171   0.108E-02    0.208E-02
RMM:   5    -0.231655441215E+04    0.64929E-05   -0.24726E-05  2823   0.724E-03
  26 F= -.23366840E+04 E0= -.23366840E+04  d E =-.418835E-02  mag=     1.0000
       N       E                     dE             d eps       ncg     rms          rms(c)
DAV:   1    -0.231655588179E+04   -0.14632E-02   -0.31647E+00  4376   0.169E+00    0.420E-01
RMM:   2    -0.231656127877E+04   -0.53970E-02   -0.63024E-02  4817   0.238E-01    0.229E-01
RMM:   3    -0.231656072295E+04    0.55582E-03   -0.47255E-03  4773   0.114E-01    0.142E-01
RMM:   4    -0.231656058318E+04    0.13976E-03   -0.16772E-03  4542   0.316E-02    0.658E-02
RMM:   5    -0.231656051477E+04    0.68414E-04   -0.25036E-04  4142   0.205E-02    0.246E-02
RMM:   6    -0.231656050870E+04    0.60675E-05   -0.50019E-05  3097   0.475E-03
  27 F= -.23366896E+04 E0= -.23366896E+04  d E =-.977030E-02  mag=     1.0000
       N       E                     dE             d eps       ncg     rms          rms(c)
DAV:   1    -0.231656355304E+04   -0.30383E-02   -0.87437E-01  4400   0.906E-01    0.244E-01
RMM:   2    -0.231656624012E+04   -0.26871E-02   -0.30047E-02  5393   0.138E-01    0.139E-01
RMM:   3    -0.231656606567E+04    0.17445E-03   -0.19601E-03  4853   0.532E-02    0.889E-02
RMM:   4    -0.231656600985E+04    0.55821E-04   -0.66634E-04  4657   0.181E-02    0.423E-02
RMM:   5    -0.231656598206E+04    0.27794E-04   -0.10994E-04  3528   0.119E-02    0.149E-02
RMM:   6    -0.231656598128E+04    0.77991E-06   -0.20110E-05  2829   0.366E-03
  28 F= -.23366946E+04 E0= -.23366946E+04  d E =-.498952E-02  mag=     1.0000
       N       E                     dE             d eps       ncg     rms          rms(c)
DAV:   1    -0.231656610936E+04   -0.12731E-03   -0.36695E-01  4496   0.587E-01    0.159E-01
RMM:   2    -0.231656722426E+04   -0.11149E-02   -0.12543E-02  5494   0.899E-02    0.897E-02
RMM:   3    -0.231656716427E+04    0.59987E-04   -0.86018E-04  4673   0.369E-02    0.576E-02
RMM:   4    -0.231656713984E+04    0.24430E-04   -0.28186E-04  4330   0.122E-02    0.282E-02
RMM:   5    -0.231656712579E+04    0.14046E-04   -0.48191E-05  2916   0.829E-03    0.949E-03
RMM:   6    -0.231656712561E+04    0.17883E-06   -0.11462E-05  2821   0.326E-03
  29 F= -.23366954E+04 E0= -.23366954E+04  d E =-.581779E-02  mag=     1.0000
       N       E                     dE             d eps       ncg     rms          rms(c)
DAV:   1    -0.231656576846E+04    0.13573E-02   -0.63788E-01  4400   0.772E-01    0.231E-01
RMM:   2    -0.231657036623E+04   -0.45978E-02   -0.49947E-02  5646   0.126E-01    0.129E-01
RMM:   3    -0.231657050663E+04   -0.14040E-03   -0.40918E-03  4835   0.541E-02    0.861E-02
RMM:   4    -0.231657047001E+04    0.36625E-04   -0.72830E-04  4501   0.145E-02    0.472E-02
RMM:   5    -0.231657044308E+04    0.26921E-04   -0.12962E-04  3665   0.110E-02    0.161E-02
RMM:   6    -0.231657044057E+04    0.25110E-05   -0.20409E-05  2829   0.422E-03
  30 F= -.23366985E+04 E0= -.23366985E+04  d E =-.304388E-02  mag=     1.0000
       N       E                     dE             d eps       ncg     rms          rms(c)
DAV:   1    -0.231656906392E+04    0.13792E-02   -0.26713E-01  4432   0.500E-01    0.150E-01
RMM:   2    -0.231657100619E+04   -0.19423E-02   -0.21119E-02  5797   0.825E-02    0.840E-02
RMM:   3    -0.231657105310E+04   -0.46906E-04   -0.16263E-03  4696   0.315E-02    0.560E-02
RMM:   4    -0.231657103546E+04    0.17635E-04   -0.29772E-04  3988   0.965E-03    0.309E-02
RMM:   5    -0.231657102331E+04    0.12154E-04   -0.54353E-05  2938   0.721E-03    0.104E-02
RMM:   6    -0.231657102218E+04    0.11324E-05   -0.10754E-05  2821   0.391E-03
  31 F= -.23366989E+04 E0= -.23366989E+04  d E =-.344712E-02  mag=     1.0000
       N       E                     dE             d eps       ncg     rms          rms(c)
DAV:   1    -0.231656496444E+04    0.60589E-02   -0.84486E-01  4400   0.854E-01    0.266E-01
RMM:   2    -0.231657398950E+04   -0.90251E-02   -0.97103E-02  5853   0.147E-01    0.167E-01
RMM:   3    -0.231657427606E+04   -0.28656E-03   -0.60640E-03  5065   0.536E-02    0.118E-01
RMM:   4    -0.231657421416E+04    0.61905E-04   -0.11737E-03  4369   0.156E-02    0.692E-02
RMM:   5    -0.231657417445E+04    0.39710E-04   -0.24256E-04  4099   0.117E-02    0.242E-02
RMM:   6    -0.231657417011E+04    0.43410E-05   -0.33910E-05  2854   0.531E-03
  32 F= -.23367019E+04 E0= -.23367019E+04  d E =-.299069E-02  mag=     1.0000
       N       E                     dE             d eps       ncg     rms          rms(c)
DAV:   1    -0.231656835329E+04    0.58212E-02   -0.57459E-01  4416   0.705E-01    0.221E-01
RMM:   2    -0.231657459103E+04   -0.62377E-02   -0.67178E-02  5914   0.123E-01    0.138E-01
RMM:   3    -0.231657480059E+04   -0.20956E-03   -0.42183E-03  5077   0.416E-02    0.976E-02
RMM:   4    -0.231657475705E+04    0.43543E-04   -0.78318E-04  4212   0.130E-02    0.573E-02
RMM:   5    -0.231657473260E+04    0.24447E-04   -0.16481E-04  3668   0.954E-03    0.204E-02
RMM:   6    -0.231657472910E+04    0.35024E-05   -0.24372E-05  2829   0.522E-03
  33 F= -.23367023E+04 E0= -.23367023E+04  d E =-.341504E-02  mag=     1.0000
       N       E                     dE             d eps       ncg     rms          rms(c)
DAV:   1    -0.231656376145E+04    0.10971E-01   -0.11012E+00  4388   0.950E-01    0.309E-01
RMM:   2    -0.231657699285E+04   -0.13231E-01   -0.14135E-01  6059   0.172E-01    0.200E-01
RMM:   3    -0.231657767962E+04   -0.68677E-03   -0.10377E-02  5217   0.560E-02    0.147E-01
RMM:   4    -0.231657761320E+04    0.66421E-04   -0.17390E-03  4460   0.168E-02    0.912E-02
RMM:   5    -0.231657755088E+04    0.62315E-04   -0.38711E-04  4392   0.124E-02    0.335E-02
RMM:   6    -0.231657754389E+04    0.69893E-05   -0.58104E-05  2903   0.651E-03
  34 F= -.23367049E+04 E0= -.23367049E+04  d E =-.264446E-02  mag=     1.0000
       N       E                     dE             d eps       ncg     rms          rms(c)
DAV:   1    -0.231657284243E+04    0.47085E-02   -0.40273E-01  4432   0.575E-01    0.188E-01
RMM:   2    -0.231657767192E+04   -0.48295E-02   -0.51724E-02  6087   0.105E-01    0.121E-01
RMM:   3    -0.231657791702E+04   -0.24510E-03   -0.36757E-03  4865   0.322E-02    0.883E-02
RMM:   4    -0.231657789083E+04    0.26186E-04   -0.62201E-04  3855   0.104E-02    0.529E-02
RMM:   5    -0.231657787264E+04    0.18195E-04   -0.12936E-04  3401   0.786E-03    0.189E-02
RMM:   6    -0.231657787130E+04    0.13393E-05   -0.21097E-05  2826   0.515E-03
  35 F= -.23367052E+04 E0= -.23367052E+04  d E =-.286731E-02  mag=     1.0000
       N       E                     dE             d eps       ncg     rms          rms(c)
DAV:   1    -0.231656826110E+04    0.96115E-02   -0.10203E+00  4400   0.930E-01    0.311E-01
RMM:   2    -0.231658012460E+04   -0.11864E-01   -0.12698E-01  6016   0.174E-01    0.187E-01
RMM:   3    -0.231658074411E+04   -0.61951E-03   -0.10242E-02  5240   0.556E-02    0.131E-01
RMM:   4    -0.231658067484E+04    0.69266E-04   -0.16642E-03  4468   0.175E-02    0.720E-02
RMM:   5    -0.231658063225E+04    0.42594E-04   -0.24552E-04  4082   0.125E-02    0.265E-02
RMM:   6    -0.231658063005E+04    0.22039E-05   -0.42127E-05  2884   0.563E-03
  36 F= -.23367076E+04 E0= -.23367076E+04  d E =-.246851E-02  mag=     1.0000
       N       E                     dE             d eps       ncg     rms          rms(c)
DAV:   1    -0.231657972288E+04    0.90937E-03   -0.89720E-02  4672   0.276E-01    0.932E-02
RMM:   2    -0.231658076618E+04   -0.10433E-02   -0.11212E-02  6113   0.531E-02    0.555E-02
RMM:   3    -0.231658082422E+04   -0.58035E-04   -0.90355E-04  3599   0.170E-02    0.390E-02
RMM:   4    -0.231658081831E+04    0.59100E-05   -0.13317E-04  2893   0.575E-03    0.217E-02
RMM:   5    -0.231658081539E+04    0.29184E-05   -0.22912E-05  2827   0.448E-03
  37 F= -.23367077E+04 E0= -.23367077E+04  d E =-.256804E-02  mag=     1.0000
       N       E                     dE             d eps       ncg     rms          rms(c)
DAV:   1    -0.231657404184E+04    0.67765E-02   -0.96837E-01  4400   0.903E-01    0.281E-01
RMM:   2    -0.231658412698E+04   -0.10085E-01   -0.10821E-01  6130   0.168E-01    0.174E-01
RMM:   3    -0.231658461111E+04   -0.48413E-03   -0.82426E-03  5281   0.476E-02    0.121E-01
RMM:   4    -0.231658454262E+04    0.68490E-04   -0.13135E-03  4366   0.158E-02    0.640E-02
RMM:   5    -0.231658451056E+04    0.32057E-04   -0.19191E-04  3809   0.109E-02    0.231E-02
RMM:   6    -0.231658450988E+04    0.68238E-06   -0.35556E-05  2849   0.554E-03
  38 F= -.23367111E+04 E0= -.23367111E+04  d E =-.340928E-02  mag=     1.0000
       N       E                     dE             d eps       ncg     rms          rms(c)
DAV:   1    -0.231657236629E+04    0.12144E-01   -0.12725E+00  4376   0.104E+00    0.322E-01
RMM:   2    -0.231658564302E+04   -0.13277E-01   -0.14235E-01  6119   0.193E-01    0.199E-01
RMM:   3    -0.231658630346E+04   -0.66044E-03   -0.11156E-02  5347   0.549E-02    0.140E-01
RMM:   4    -0.231658622471E+04    0.78750E-04   -0.17988E-03  4505   0.180E-02    0.773E-02
RMM:   5    -0.231658617304E+04    0.51673E-04   -0.29909E-04  4168   0.120E-02    0.314E-02
RMM:   6    -0.231658616407E+04    0.89701E-05   -0.54103E-05  2921   0.631E-03
  39 F= -.23367125E+04 E0= -.23367125E+04  d E =-.474479E-02  mag=     1.0000
       N       E                     dE             d eps       ncg     rms          rms(c)
DAV:   1    -0.231658485803E+04    0.13150E-02   -0.38465E-01  4464   0.572E-01    0.180E-01
RMM:   2    -0.231658849161E+04   -0.36336E-02   -0.39060E-02  6142   0.107E-01    0.109E-01
RMM:   3    -0.231658867327E+04   -0.18166E-03   -0.30768E-03  4833   0.307E-02    0.776E-02
RMM:   4    -0.231658864991E+04    0.23354E-04   -0.47781E-04  3826   0.105E-02    0.415E-02
RMM:   5    -0.231658864024E+04    0.96734E-05   -0.82725E-05  3127   0.720E-03
  40 F= -.23367149E+04 E0= -.23367149E+04  d E =-.239147E-02  mag=     1.0000
       N       E                     dE             d eps       ncg     rms          rms(c)
DAV:   1    -0.231656151173E+04    0.27138E-01   -0.29907E+00  4376   0.160E+00    0.503E-01
RMM:   2    -0.231659000743E+04   -0.28496E-01   -0.30549E-01  6085   0.297E-01    0.307E-01
RMM:   3    -0.231659143311E+04   -0.14257E-02   -0.25120E-02  5325   0.870E-02    0.219E-01
RMM:   4    -0.231659125294E+04    0.18017E-03   -0.38822E-03  4831   0.273E-02    0.125E-01
RMM:   5    -0.231659113334E+04    0.11960E-03   -0.76303E-04  4814   0.180E-02    0.520E-02
RMM:   6    -0.231659110191E+04    0.31429E-04   -0.14234E-04  3555   0.849E-03    0.220E-02
RMM:   7    -0.231659109676E+04    0.51563E-05   -0.33452E-05  2845   0.497E-03
  41 F= -.23367171E+04 E0= -.23367171E+04  d E =-.462983E-02  mag=     1.0000
       N       E                     dE             d eps       ncg     rms          rms(c)
DAV:   1    -0.231658674299E+04    0.43589E-02   -0.78475E-01  4400   0.803E-01    0.251E-01
RMM:   2    -0.231659335704E+04   -0.66140E-02   -0.70190E-02  6134   0.151E-01    0.156E-01
RMM:   3    -0.231659367072E+04   -0.31369E-03   -0.58649E-03  5158   0.416E-02    0.111E-01
RMM:   4    -0.231659361557E+04    0.55158E-04   -0.94760E-04  4260   0.143E-02    0.560E-02
RMM:   5    -0.231659359963E+04    0.15940E-04   -0.15954E-04  3464   0.933E-03    0.258E-02
RMM:   6    -0.231659359497E+04    0.46502E-05   -0.34345E-05  2849   0.533E-03
  42 F= -.23367194E+04 E0= -.23367194E+04  d E =-.228515E-02  mag=     1.0000
       N       E                     dE             d eps       ncg     rms          rms(c)
DAV:   1    -0.231658696027E+04    0.66394E-02   -0.87245E-01  4400   0.847E-01    0.265E-01
RMM:   2    -0.231659429017E+04   -0.73299E-02   -0.77941E-02  6149   0.160E-01    0.162E-01
RMM:   3    -0.231659461704E+04   -0.32687E-03   -0.62814E-03  5231   0.441E-02    0.116E-01
RMM:   4    -0.231659455782E+04    0.59220E-04   -0.10375E-03  4322   0.149E-02    0.585E-02
RMM:   5    -0.231659453896E+04    0.18862E-04   -0.17969E-04  3562   0.968E-03    0.271E-02
RMM:   6    -0.231659453267E+04    0.62907E-05   -0.37112E-05  2857   0.550E-03
  43 F= -.23367201E+04 E0= -.23367201E+04  d E =-.300586E-02  mag=     1.0000
       N       E                     dE             d eps       ncg     rms          rms(c)
DAV:   1    -0.231659564080E+04   -0.11018E-02   -0.32865E-01  4496   0.543E-01    0.183E-01
RMM:   2    -0.231659724678E+04   -0.16060E-02   -0.18252E-02  5988   0.103E-01    0.898E-02
RMM:   3    -0.231659720802E+04    0.38761E-04   -0.12963E-03  4767   0.303E-02    0.582E-02
RMM:   4    -0.231659717747E+04    0.30547E-04   -0.24954E-04  4169   0.111E-02    0.259E-02
RMM:   5    -0.231659717207E+04    0.54035E-05   -0.43189E-05  3106   0.737E-03
  44 F= -.23367225E+04 E0= -.23367225E+04  d E =-.239886E-02  mag=     1.0000
       N       E                     dE             d eps       ncg     rms          rms(c)
DAV:   1    -0.231659641266E+04    0.76482E-03   -0.38584E-01  4400   0.589E-01    0.198E-01
RMM:   2    -0.231659830314E+04   -0.18905E-02   -0.21463E-02  5955   0.111E-01    0.974E-02
RMM:   3    -0.231659825354E+04    0.49604E-04   -0.15226E-03  4859   0.319E-02    0.629E-02
RMM:   4    -0.231659821483E+04    0.38704E-04   -0.29604E-04  4318   0.119E-02    0.273E-02
RMM:   5    -0.231659820736E+04    0.74767E-05   -0.49005E-05  3194   0.775E-03
  45 F= -.23367233E+04 E0= -.23367233E+04  d E =-.317503E-02  mag=     1.0000
       N       E                     dE             d eps       ncg     rms          rms(c)
DAV:   1    -0.231659857108E+04   -0.35625E-03   -0.31180E-01  4400   0.530E-01    0.175E-01
RMM:   2    -0.231660057698E+04   -0.20059E-02   -0.22667E-02  6019   0.102E-01    0.864E-02
RMM:   3    -0.231660059952E+04   -0.22536E-04   -0.17241E-03  4792   0.304E-02    0.568E-02
RMM:   4    -0.231660058257E+04    0.16946E-04   -0.30757E-04  3944   0.102E-02    0.271E-02
RMM:   5    -0.231660057632E+04    0.62526E-05   -0.40956E-05  3072   0.686E-03
  46 F= -.23367255E+04 E0= -.23367255E+04  d E =-.221881E-02  mag=     1.0000
       N       E                     dE             d eps       ncg     rms          rms(c)
DAV:   1    -0.231659665438E+04    0.39282E-02   -0.83688E-01  4388   0.869E-01    0.288E-01
RMM:   2    -0.231660206525E+04   -0.54109E-02   -0.61217E-02  6020   0.169E-01    0.143E-01
RMM:   3    -0.231660212935E+04   -0.64102E-04   -0.46914E-03  5236   0.500E-02    0.932E-02
RMM:   4    -0.231660207896E+04    0.50389E-04   -0.82367E-04  4615   0.153E-02    0.450E-02
RMM:   5    -0.231660205788E+04    0.21075E-04   -0.10512E-04  3868   0.102E-02    0.162E-02
RMM:   6    -0.231660205630E+04    0.15825E-05   -0.24827E-05  2834   0.532E-03
  47 F= -.23367267E+04 E0= -.23367267E+04  d E =-.345381E-02  mag=     1.0000
       N       E                     dE             d eps       ncg     rms          rms(c)
DAV:   1    -0.231660064461E+04    0.14133E-02   -0.41326E-01  4464   0.608E-01    0.204E-01
RMM:   2    -0.231660414179E+04   -0.34972E-02   -0.39135E-02  6055   0.122E-01    0.106E-01
RMM:   3    -0.231660427112E+04   -0.12933E-03   -0.32893E-03  5007   0.370E-02    0.721E-02
RMM:   4    -0.231660425895E+04    0.12166E-04   -0.56799E-04  4075   0.123E-02    0.368E-02
RMM:   5    -0.231660424977E+04    0.91878E-05   -0.82884E-05  3226   0.767E-03
  48 F= -.23367289E+04 E0= -.23367289E+04  d E =-.213845E-02  mag=     1.0000
       N       E                     dE             d eps       ncg     rms          rms(c)
DAV:   1    -0.231660318151E+04    0.10774E-02   -0.17020E-01  4528   0.390E-01    0.131E-01
RMM:   2    -0.231660459005E+04   -0.14085E-02   -0.15838E-02  6028   0.770E-02    0.675E-02
RMM:   3    -0.231660463673E+04   -0.46682E-04   -0.11796E-03  4269   0.240E-02    0.449E-02
RMM:   4    -0.231660462905E+04    0.76788E-05   -0.21363E-04  3386   0.831E-03    0.207E-02
RMM:   5    -0.231660462552E+04    0.35292E-05   -0.26540E-05  2844   0.575E-03
  49 F= -.23367292E+04 E0= -.23367292E+04  d E =-.247887E-02  mag=     1.0000
       N       E                     dE             d eps       ncg     rms          rms(c)
DAV:   1    -0.231660504799E+04   -0.41894E-03   -0.27481E-01  4400   0.524E-01    0.167E-01
RMM:   2    -0.231660631905E+04   -0.12711E-02   -0.14987E-02  5742   0.883E-02    0.785E-02
RMM:   3    -0.231660629748E+04    0.21565E-04   -0.97277E-04  4609   0.303E-02    0.501E-02
RMM:   4    -0.231660627470E+04    0.22779E-04   -0.18973E-04  4055   0.105E-02    0.224E-02
RMM:   5    -0.231660627283E+04    0.18773E-05   -0.34339E-05  2950   0.762E-03
  50 F= -.23367307E+04 E0= -.23367307E+04  d E =-.150474E-02  mag=     1.0000
       N       E                     dE             d eps       ncg     rms          rms(c)
DAV:   1    -0.231660604959E+04    0.22511E-03   -0.11482E-01  4432   0.339E-01    0.108E-01
RMM:   2    -0.231660658359E+04   -0.53399E-03   -0.62534E-03  5732   0.588E-02    0.509E-02
RMM:   3    -0.231660657975E+04    0.38423E-05   -0.44911E-04  4192   0.201E-02    0.332E-02
RMM:   4    -0.231660656936E+04    0.10390E-04   -0.79412E-05  3325   0.694E-03    0.141E-02
RMM:   5    -0.231660656834E+04    0.10112E-05   -0.13652E-05  2821   0.511E-03
  51 F= -.23367309E+04 E0= -.23367309E+04  d E =-.170830E-02  mag=     1.0000
       N       E                     dE             d eps       ncg     rms          rms(c)
DAV:   1    -0.231660689619E+04   -0.32683E-03   -0.35144E-01  4400   0.595E-01    0.166E-01
RMM:   2    -0.231660817838E+04   -0.12822E-02   -0.15176E-02  5573   0.957E-02    0.858E-02
RMM:   3    -0.231660816009E+04    0.18289E-04   -0.10979E-03  4627   0.326E-02    0.574E-02
RMM:   4    -0.231660812720E+04    0.32890E-04   -0.22653E-04  4170   0.118E-02    0.245E-02
RMM:   5    -0.231660812409E+04    0.31154E-05   -0.40403E-05  3045   0.793E-03
  52 F= -.23367322E+04 E0= -.23367322E+04  d E =-.124944E-02  mag=     1.0000
       N       E                     dE             d eps       ncg     rms          rms(c)
DAV:   1    -0.231660747798E+04    0.64923E-03   -0.21310E-01  4400   0.463E-01    0.130E-01
RMM:   2    -0.231660825862E+04   -0.78065E-03   -0.92174E-03  5560   0.754E-02    0.671E-02
RMM:   3    -0.231660825054E+04    0.80801E-05   -0.68606E-04  4516   0.251E-02    0.454E-02
RMM:   4    -0.231660822950E+04    0.21041E-04   -0.14042E-04  3904   0.935E-03    0.194E-02
RMM:   5    -0.231660822648E+04    0.30185E-05   -0.24004E-05  2892   0.608E-03
  53 F= -.23367320E+04 E0= -.23367320E+04  d E =-.111404E-02  mag=     1.0000
       N       E                     dE             d eps       ncg     rms          rms(c)
DAV:   1    -0.231660805666E+04    0.17284E-03   -0.67560E-02  4496   0.260E-01    0.722E-02
RMM:   2    -0.231660830154E+04   -0.24488E-03   -0.28961E-03  5632   0.418E-02    0.372E-02
RMM:   3    -0.231660829084E+04    0.10703E-04   -0.18500E-04  3674   0.149E-02    0.245E-02
RMM:   4    -0.231660828471E+04    0.61238E-05   -0.43499E-05  3028   0.558E-03
  54 F= -.23367322E+04 E0= -.23367322E+04  d E =-.130545E-02  mag=     1.0000
       N       E                     dE             d eps       ncg     rms          rms(c)
DAV:   1    -0.231660839327E+04   -0.10243E-03   -0.16926E-01  4400   0.429E-01    0.137E-01
RMM:   2    -0.231660916670E+04   -0.77344E-03   -0.89777E-03  5835   0.769E-02    0.609E-02
RMM:   3    -0.231660914194E+04    0.24761E-04   -0.65105E-04  4530   0.265E-02    0.387E-02
RMM:   4    -0.231660912333E+04    0.18615E-04   -0.15871E-04  4019   0.100E-02    0.147E-02
RMM:   5    -0.231660912082E+04    0.25053E-05   -0.19429E-05  2835   0.618E-03
  55 F= -.23367329E+04 E0= -.23367329E+04  d E =-.662437E-03  mag=     1.0000
       N       E                     dE             d eps       ncg     rms          rms(c)
DAV:   1    -0.231660913105E+04   -0.77267E-05   -0.18674E-03  5448   0.456E-02    0.154E-02
RMM:   2    -0.231660913995E+04   -0.88996E-05   -0.10729E-04  4018   0.910E-03    0.737E-03
RMM:   3    -0.231660913993E+04    0.19441E-07   -0.85330E-06  2628   0.459E-03
  56 F= -.23367329E+04 E0= -.23367329E+04  d E =-.663002E-03  mag=     1.0000
       N       E                     dE             d eps       ncg     rms          rms(c)
DAV:   1    -0.231660904088E+04    0.99069E-04   -0.14458E-01  4400   0.394E-01    0.114E-01
RMM:   2    -0.231660996828E+04   -0.92740E-03   -0.10087E-02  5969   0.722E-02    0.532E-02
RMM:   3    -0.231660997423E+04   -0.59428E-05   -0.67809E-04  4111   0.200E-02    0.344E-02
RMM:   4    -0.231660996405E+04    0.10177E-04   -0.13464E-04  3579   0.807E-03    0.146E-02
RMM:   5    -0.231660996289E+04    0.11642E-05   -0.18177E-05  2829   0.553E-03
  57 F= -.23367336E+04 E0= -.23367336E+04  d E =-.701158E-03  mag=     1.0000
       N       E                     dE             d eps       ncg     rms          rms(c)
DAV:   1    -0.231660955362E+04    0.41043E-03   -0.10451E-01  4400   0.335E-01    0.970E-02
RMM:   2    -0.231661021940E+04   -0.66577E-03   -0.72455E-03  5887   0.610E-02    0.452E-02
RMM:   3    -0.231661021760E+04    0.17933E-05   -0.44094E-04  3766   0.180E-02    0.289E-02
RMM:   4    -0.231661021090E+04    0.66995E-05   -0.10093E-04  3313   0.707E-03    0.117E-02
RMM:   5    -0.231661021002E+04    0.88477E-06   -0.11620E-05  2813   0.504E-03
  58 F= -.23367337E+04 E0= -.23367337E+04  d E =-.844378E-03  mag=     1.0000
       N       E                     dE             d eps       ncg     rms          rms(c)
DAV:   1    -0.231661048349E+04   -0.27258E-03   -0.74782E-02  4400   0.277E-01    0.690E-02
RMM:   2    -0.231661091367E+04   -0.43019E-03   -0.46263E-03  5934   0.490E-02    0.368E-02
RMM:   3    -0.231661091858E+04   -0.49054E-05   -0.31931E-04  3422   0.150E-02    0.235E-02
RMM:   4    -0.231661091408E+04    0.44951E-05   -0.53770E-05  2857   0.529E-03
  59 F= -.23367343E+04 E0= -.23367343E+04  d E =-.556199E-03  mag=     1.0000
       N       E                     dE             d eps       ncg     rms          rms(c)
DAV:   1    -0.231660818198E+04    0.27366E-02   -0.67294E-01  4376   0.830E-01    0.206E-01
RMM:   2    -0.231661209021E+04   -0.39082E-02   -0.41984E-02  5924   0.145E-01    0.110E-01
RMM:   3    -0.231661212646E+04   -0.36251E-04   -0.28475E-03  5078   0.384E-02    0.715E-02
RMM:   4    -0.231661207878E+04    0.47680E-04   -0.51689E-04  4405   0.139E-02    0.298E-02
RMM:   5    -0.231661207303E+04    0.57477E-05   -0.60650E-05  3176   0.879E-03
  60 F= -.23367350E+04 E0= -.23367350E+04  d E =-.127213E-02  mag=     1.0000
       N       E                     dE             d eps       ncg     rms          rms(c)
DAV:   1    -0.231661231017E+04   -0.23139E-03   -0.13325E-01  4464   0.367E-01    0.971E-02
RMM:   2    -0.231661308382E+04   -0.77365E-03   -0.83173E-03  5840   0.639E-02    0.521E-02
RMM:   3    -0.231661309699E+04   -0.13172E-04   -0.64081E-04  3934   0.202E-02    0.328E-02
RMM:   4    -0.231661308809E+04    0.89031E-05   -0.10113E-04  3293   0.708E-03    0.139E-02
RMM:   5    -0.231661308812E+04   -0.30530E-07   -0.14959E-05  2816   0.524E-03
  61 F= -.23367358E+04 E0= -.23367358E+04  d E =-.800025E-03  mag=     1.0000
       N       E                     dE             d eps       ncg     rms          rms(c)
DAV:   1    -0.231661100608E+04    0.20820E-02   -0.51548E-01  4376   0.723E-01    0.189E-01
RMM:   2    -0.231661403392E+04   -0.30278E-02   -0.32486E-02  5831   0.126E-01    0.101E-01
RMM:   3    -0.231661408523E+04   -0.51309E-04   -0.25205E-03  4933   0.397E-02    0.644E-02
RMM:   4    -0.231661404594E+04    0.39292E-04   -0.44312E-04  4335   0.135E-02    0.260E-02
RMM:   5    -0.231661404242E+04    0.35148E-05   -0.46639E-05  3022   0.842E-03
  62 F= -.23367363E+04 E0= -.23367363E+04  d E =-.133292E-02  mag=     1.0000
       N       E                     dE             d eps       ncg     rms          rms(c)
DAV:   1    -0.231661389270E+04    0.15323E-03   -0.15994E-01  4400   0.395E-01    0.103E-01
RMM:   2    -0.231661496436E+04   -0.10717E-02   -0.11454E-02  5820   0.681E-02    0.591E-02
RMM:   3    -0.231661499917E+04   -0.34802E-04   -0.92338E-04  4048   0.210E-02    0.376E-02
RMM:   4    -0.231661498697E+04    0.12194E-04   -0.13464E-04  3292   0.727E-03    0.163E-02
RMM:   5    -0.231661498685E+04    0.12069E-06   -0.17415E-05  2822   0.521E-03
  63 F= -.23367371E+04 E0= -.23367371E+04  d E =-.729265E-03  mag=     1.0000
       N       E                     dE             d eps       ncg     rms          rms(c)
DAV:   1    -0.231660938751E+04    0.55995E-02   -0.97699E-01  4376   0.977E-01    0.251E-01
RMM:   2    -0.231661594647E+04   -0.65590E-02   -0.69916E-02  5858   0.168E-01    0.144E-01
RMM:   3    -0.231661617565E+04   -0.22918E-03   -0.58232E-03  5111   0.527E-02    0.935E-02
RMM:   4    -0.231661610949E+04    0.66157E-04   -0.92229E-04  4554   0.171E-02    0.444E-02
RMM:   5    -0.231661609572E+04    0.13780E-04   -0.12340E-04  3635   0.108E-02    0.178E-02
RMM:   6    -0.231661609269E+04    0.30269E-05   -0.23720E-05  2833   0.465E-03
  64 F= -.23367376E+04 E0= -.23367376E+04  d E =-.130745E-02  mag=     1.0000
       N       E                     dE             d eps       ncg     rms          rms(c)
DAV:   1    -0.231661517171E+04    0.92400E-03   -0.26084E-01  4400   0.493E-01    0.138E-01
RMM:   2    -0.231661713635E+04   -0.19646E-02   -0.21020E-02  5942   0.882E-02    0.791E-02
RMM:   3    -0.231661720856E+04   -0.72213E-04   -0.17127E-03  4596   0.292E-02    0.507E-02
RMM:   4    -0.231661718999E+04    0.18569E-04   -0.27145E-04  3895   0.962E-03    0.231E-02
RMM:   5    -0.231661718760E+04    0.23879E-05   -0.33951E-05  2875   0.625E-03
  65 F= -.23367385E+04 E0= -.23367385E+04  d E =-.876476E-03  mag=     1.0000
       N       E                     dE             d eps       ncg     rms          rms(c)
DAV:   1    -0.231661422992E+04    0.29601E-02   -0.45876E-01  4376   0.655E-01    0.184E-01
RMM:   2    -0.231661770639E+04   -0.34765E-02   -0.37191E-02  5866   0.116E-01    0.106E-01
RMM:   3    -0.231661782979E+04   -0.12340E-03   -0.29595E-03  4883   0.371E-02    0.673E-02
RMM:   4    -0.231661779304E+04    0.36747E-04   -0.45811E-04  4194   0.121E-02    0.296E-02
RMM:   5    -0.231661778989E+04    0.31522E-05   -0.48892E-05  2968   0.797E-03
  66 F= -.23367388E+04 E0= -.23367388E+04  d E =-.119105E-02  mag=     1.0000
       N       E                     dE             d eps       ncg     rms          rms(c)
DAV:   1    -0.231661667490E+04    0.11181E-02   -0.25383E-01  4400   0.476E-01    0.144E-01
RMM:   2    -0.231661881898E+04   -0.21441E-02   -0.22984E-02  5907   0.881E-02    0.831E-02
RMM:   3    -0.231661890062E+04   -0.81642E-04   -0.18377E-03  4574   0.277E-02    0.525E-02
RMM:   4    -0.231661888152E+04    0.19099E-04   -0.26864E-04  3797   0.923E-03    0.242E-02
RMM:   5    -0.231661887911E+04    0.24165E-05   -0.35062E-05  2871   0.656E-03
  67 F= -.23367398E+04 E0= -.23367398E+04  d E =-.929616E-03  mag=     1.0000
       N       E                     dE             d eps       ncg     rms          rms(c)
DAV:   1    -0.231661691579E+04    0.19657E-02   -0.27576E-01  4388   0.496E-01    0.149E-01
RMM:   2    -0.231661925074E+04   -0.23350E-02   -0.24992E-02  5919   0.921E-02    0.859E-02
RMM:   3    -0.231661933874E+04   -0.88003E-04   -0.19708E-03  4649   0.308E-02    0.546E-02
RMM:   4    -0.231661931603E+04    0.22716E-04   -0.30194E-04  3944   0.986E-03    0.243E-02
RMM:   5    -0.231661931372E+04    0.23087E-05   -0.34394E-05  2881   0.673E-03
  68 F= -.23367400E+04 E0= -.23367400E+04  d E =-.119991E-02  mag=     1.0000
       N       E                     dE             d eps       ncg     rms          rms(c)
DAV:   1    -0.231661762406E+04    0.16920E-02   -0.34227E-01  4376   0.556E-01    0.167E-01
RMM:   2    -0.231662051914E+04   -0.28951E-02   -0.31009E-02  5979   0.104E-01    0.947E-02
RMM:   3    -0.231662062924E+04   -0.11010E-03   -0.24331E-03  4773   0.323E-02    0.600E-02
RMM:   4    -0.231662060312E+04    0.26115E-04   -0.36262E-04  3983   0.105E-02    0.270E-02
RMM:   5    -0.231662060025E+04    0.28709E-05   -0.45031E-05  3001   0.716E-03
  69 F= -.23367411E+04 E0= -.23367411E+04  d E =-.103649E-02  mag=     1.0000
       N       E                     dE             d eps       ncg     rms          rms(c)
DAV:   1    -0.231661894487E+04    0.16582E-02   -0.23665E-01  4432   0.463E-01    0.139E-01
RMM:   2    -0.231662094489E+04   -0.20000E-02   -0.21420E-02  5942   0.863E-02    0.789E-02
RMM:   3    -0.231662102124E+04   -0.76356E-04   -0.16873E-03  4513   0.275E-02    0.500E-02
RMM:   4    -0.231662100287E+04    0.18369E-04   -0.24784E-04  3667   0.883E-03    0.228E-02
RMM:   5    -0.231662100030E+04    0.25743E-05   -0.33273E-05  2870   0.641E-03
  70 F= -.23367413E+04 E0= -.23367413E+04  d E =-.123070E-02  mag=     1.0000
       N       E                     dE             d eps       ncg     rms          rms(c)
DAV:   1    -0.231661933623E+04    0.16666E-02   -0.35291E-01  4376   0.573E-01    0.169E-01
RMM:   2    -0.231662223422E+04   -0.28980E-02   -0.31042E-02  5950   0.107E-01    0.933E-02
RMM:   3    -0.231662235322E+04   -0.11900E-03   -0.25198E-03  4819   0.349E-02    0.593E-02
RMM:   4    -0.231662233010E+04    0.23128E-04   -0.37719E-04  4003   0.108E-02    0.264E-02
RMM:   5    -0.231662232605E+04    0.40506E-05   -0.43125E-05  2961   0.713E-03
  71 F= -.23367423E+04 E0= -.23367423E+04  d E =-.100137E-02  mag=     1.0000
       N       E                     dE             d eps       ncg     rms          rms(c)
DAV:   1    -0.231662047489E+04    0.18552E-02   -0.27889E-01  4400   0.510E-01    0.151E-01
RMM:   2    -0.231662276259E+04   -0.22877E-02   -0.24500E-02  5949   0.951E-02    0.836E-02
RMM:   3    -0.231662285683E+04   -0.94240E-04   -0.20046E-03  4652   0.299E-02    0.529E-02
RMM:   4    -0.231662283717E+04    0.19660E-04   -0.28607E-04  3827   0.958E-03    0.236E-02
RMM:   5    -0.231662283393E+04    0.32359E-05   -0.34592E-05  2888   0.652E-03
  72 F= -.23367425E+04 E0= -.23367425E+04  d E =-.122268E-02  mag=     1.0000
       N       E                     dE             d eps       ncg     rms          rms(c)
DAV:   1    -0.231662085415E+04    0.19830E-02   -0.37619E-01  4376   0.599E-01    0.171E-01
RMM:   2    -0.231662387178E+04   -0.30176E-02   -0.32339E-02  5943   0.112E-01    0.932E-02
RMM:   3    -0.231662400500E+04   -0.13322E-03   -0.27591E-03  4840   0.362E-02    0.599E-02
RMM:   4    -0.231662398693E+04    0.18076E-04   -0.42252E-04  4086   0.116E-02    0.286E-02
RMM:   5    -0.231662398053E+04    0.63913E-05   -0.55096E-05  3032   0.718E-03
  73 F= -.23367434E+04 E0= -.23367434E+04  d E =-.943896E-03  mag=     1.0000
       N       E                     dE             d eps       ncg     rms          rms(c)
DAV:   1    -0.231662311548E+04    0.87145E-03   -0.13379E-01  4496   0.357E-01    0.103E-01
RMM:   2    -0.231662417848E+04   -0.10630E-02   -0.11382E-02  5925   0.668E-02    0.563E-02
RMM:   3    -0.231662422382E+04   -0.45339E-04   -0.94836E-04  4017   0.211E-02    0.355E-02
RMM:   4    -0.231662421601E+04    0.78081E-05   -0.13370E-04  3073   0.689E-03    0.159E-02
RMM:   5    -0.231662421481E+04    0.11959E-05   -0.16394E-05  2825   0.489E-03
  74 F= -.23367435E+04 E0= -.23367435E+04  d E =-.105790E-02  mag=     1.0000
       N       E                     dE             d eps       ncg     rms          rms(c)
DAV:   1    -0.231662240912E+04    0.18069E-02   -0.40484E-01  4376   0.638E-01    0.178E-01
RMM:   2    -0.231662514335E+04   -0.27342E-02   -0.29457E-02  5946   0.116E-01    0.909E-02
RMM:   3    -0.231662522497E+04   -0.81618E-04   -0.23964E-03  4857   0.371E-02    0.582E-02
RMM:   4    -0.231662520076E+04    0.24208E-04   -0.40817E-04  4226   0.125E-02    0.276E-02
RMM:   5    -0.231662519405E+04    0.67091E-05   -0.53843E-05  3026   0.763E-03
  75 F= -.23367445E+04 E0= -.23367445E+04  d E =-.917756E-03  mag=     1.0000
       N       E                     dE             d eps       ncg     rms          rms(c)
DAV:   1    -0.231662479595E+04    0.40481E-03   -0.68558E-02  4608   0.263E-01    0.741E-02
RMM:   2    -0.231662525973E+04   -0.46378E-03   -0.50019E-03  5899   0.485E-02    0.385E-02
RMM:   3    -0.231662527257E+04   -0.12843E-04   -0.39613E-04  3500   0.151E-02    0.241E-02
RMM:   4    -0.231662526716E+04    0.54138E-05   -0.61539E-05  2860   0.523E-03
  76 F= -.23367445E+04 E0= -.23367445E+04  d E =-.965752E-03  mag=     1.0000
       N       E                     dE             d eps       ncg     rms          rms(c)
DAV:   1    -0.231662418103E+04    0.10915E-02   -0.39785E-01  4376   0.632E-01    0.166E-01
RMM:   2    -0.231662629544E+04   -0.21144E-02   -0.22811E-02  5903   0.110E-01    0.869E-02
RMM:   3    -0.231662631936E+04   -0.23918E-04   -0.16211E-03  4789   0.322E-02    0.563E-02
RMM:   4    -0.231662629593E+04    0.23428E-04   -0.34614E-04  4236   0.125E-02    0.249E-02
RMM:   5    -0.231662629104E+04    0.48870E-05   -0.44049E-05  2917   0.728E-03
  77 F= -.23367454E+04 E0= -.23367454E+04  d E =-.859991E-03  mag=     1.0000
       N       E                     dE             d eps       ncg     rms          rms(c)
DAV:   1    -0.231662602480E+04    0.27113E-03   -0.71677E-02  4592   0.269E-01    0.714E-02
RMM:   2    -0.231662641147E+04   -0.38668E-03   -0.41687E-03  5863   0.479E-02    0.378E-02
RMM:   3    -0.231662641592E+04   -0.44481E-05   -0.28832E-04  3443   0.139E-02    0.239E-02
RMM:   4    -0.231662641089E+04    0.50288E-05   -0.53840E-05  2872   0.540E-03
  78 F= -.23367454E+04 E0= -.23367454E+04  d E =-.910362E-03  mag=     1.0000
       N       E                     dE             d eps       ncg     rms          rms(c)
DAV:   1    -0.231662600666E+04    0.40926E-03   -0.28044E-01  4360   0.537E-01    0.151E-01
RMM:   2    -0.231662717715E+04   -0.11705E-02   -0.13076E-02  5787   0.927E-02    0.715E-02
RMM:   3    -0.231662715350E+04    0.23645E-04   -0.88767E-04  4592   0.299E-02    0.447E-02
RMM:   4    -0.231662712907E+04    0.24439E-04   -0.20783E-04  4152   0.114E-02    0.169E-02
RMM:   5    -0.231662712752E+04    0.15487E-05   -0.24051E-05  2831   0.689E-03
  79 F= -.23367460E+04 E0= -.23367460E+04  d E =-.565170E-03  mag=     1.0000
       N       E                     dE             d eps       ncg     rms          rms(c)
DAV:   1    -0.231662712797E+04    0.10926E-05   -0.80004E-05  4584   0.977E-03    0.524E-03
RMM:   2    -0.231662712812E+04   -0.14651E-06   -0.72956E-06  2747   0.244E-03
  80 F= -.23367460E+04 E0= -.23367460E+04  d E =-.563205E-03  mag=     1.0000
       N       E                     dE             d eps       ncg     rms          rms(c)
DAV:   1    -0.231662700041E+04    0.12756E-03   -0.15130E-01  4384   0.397E-01    0.112E-01
RMM:   2    -0.231662769277E+04   -0.69236E-03   -0.77493E-03  5901   0.695E-02    0.537E-02
RMM:   3    -0.231662768900E+04    0.37703E-05   -0.56421E-04  4264   0.214E-02    0.343E-02
RMM:   4    -0.231662767598E+04    0.13016E-04   -0.12104E-04  3909   0.865E-03    0.140E-02
RMM:   5    -0.231662767414E+04    0.18363E-05   -0.17168E-05  2816   0.540E-03
  81 F= -.23367465E+04 E0= -.23367465E+04  d E =-.474346E-03  mag=     1.0000
       N       E                     dE             d eps       ncg     rms          rms(c)
DAV:   1    -0.231662765156E+04    0.24425E-04   -0.11284E-02  4896   0.109E-01    0.312E-02
RMM:   2    -0.231662770574E+04   -0.54183E-04   -0.60201E-04  5627   0.195E-02    0.151E-02
RMM:   3    -0.231662770498E+04    0.76315E-06   -0.37035E-05  2824   0.688E-03
  82 F= -.23367465E+04 E0= -.23367465E+04  d E =-.485420E-03  mag=     1.0000
       N       E                     dE             d eps       ncg     rms          rms(c)
DAV:   1    -0.231662737196E+04    0.33378E-03   -0.15358E-01  4384   0.410E-01    0.126E-01
RMM:   2    -0.231662815588E+04   -0.78392E-03   -0.88145E-03  5806   0.724E-02    0.544E-02
RMM:   3    -0.231662815177E+04    0.41055E-05   -0.65107E-04  4307   0.207E-02    0.346E-02
RMM:   4    -0.231662813944E+04    0.12331E-04   -0.13256E-04  3901   0.883E-03    0.137E-02
RMM:   5    -0.231662813811E+04    0.13340E-05   -0.16825E-05  2819   0.559E-03
  83 F= -.23367469E+04 E0= -.23367469E+04  d E =-.385477E-03  mag=     1.0000
       N       E                     dE             d eps       ncg     rms          rms(c)
DAV:   1    -0.231662813297E+04    0.64654E-05   -0.14281E-03  5368   0.398E-02    0.128E-02
RMM:   2    -0.231662814068E+04   -0.77067E-05   -0.86765E-05  3550   0.760E-03
  84 F= -.23367469E+04 E0= -.23367469E+04  d E =-.383352E-03  mag=     1.0000
       N       E                     dE             d eps       ncg     rms          rms(c)
DAV:   1    -0.231662785796E+04    0.27502E-03   -0.12153E-01  4400   0.362E-01    0.104E-01
RMM:   2    -0.231662851829E+04   -0.66033E-03   -0.73455E-03  5947   0.645E-02    0.508E-02
RMM:   3    -0.231662851589E+04    0.24066E-05   -0.49965E-04  4249   0.227E-02    0.320E-02
RMM:   4    -0.231662850532E+04    0.10566E-04   -0.10124E-04  3674   0.800E-03    0.121E-02
RMM:   5    -0.231662850444E+04    0.88105E-06   -0.11015E-05  2807   0.557E-03
  85 F= -.23367472E+04 E0= -.23367472E+04  d E =-.337194E-03  mag=     1.0000
       N       E                     dE             d eps       ncg     rms          rms(c)
DAV:   1    -0.231662848472E+04    0.20596E-04   -0.40722E-03  5184   0.668E-02    0.194E-02
RMM:   2    -0.231662850761E+04   -0.22891E-04   -0.25561E-04  5154   0.126E-02    0.944E-03
RMM:   3    -0.231662850793E+04   -0.31652E-06   -0.20393E-05  2770   0.528E-03
  86 F= -.23367472E+04 E0= -.23367472E+04  d E =-.335737E-03  mag=     1.0000
       N       E                     dE             d eps       ncg     rms          rms(c)
DAV:   1    -0.231662828355E+04    0.22406E-03   -0.14174E-01  4388   0.394E-01    0.109E-01
RMM:   2    -0.231662895631E+04   -0.67276E-03   -0.75704E-03  5743   0.665E-02    0.494E-02
RMM:   3    -0.231662895292E+04    0.33921E-05   -0.54470E-04  4185   0.202E-02    0.320E-02
RMM:   4    -0.231662894400E+04    0.89150E-05   -0.12698E-04  3806   0.842E-03    0.153E-02
RMM:   5    -0.231662894064E+04    0.33633E-05   -0.17668E-05  2819   0.547E-03
  87 F= -.23367475E+04 E0= -.23367475E+04  d E =-.326581E-03  mag=     1.0000
       N       E                     dE             d eps       ncg     rms          rms(c)
DAV:   1    -0.231662893586E+04    0.81465E-05   -0.39897E-03  5208   0.665E-02    0.189E-02
RMM:   2    -0.231662895602E+04   -0.20159E-04   -0.22456E-04  4982   0.119E-02    0.872E-03
RMM:   3    -0.231662895594E+04    0.74622E-07   -0.14801E-05  2776   0.514E-03
  88 F= -.23367475E+04 E0= -.23367475E+04  d E =-.323841E-03  mag=     1.0000
       N       E                     dE             d eps       ncg     rms          rms(c)
DAV:   1    -0.231662898993E+04   -0.33916E-04   -0.11775E-01  4400   0.359E-01    0.895E-02
RMM:   2    -0.231662944530E+04   -0.45537E-03   -0.50955E-03  5637   0.581E-02    0.436E-02
RMM:   3    -0.231662943509E+04    0.10205E-04   -0.35535E-04  3916   0.183E-02    0.282E-02
RMM:   4    -0.231662942871E+04    0.63792E-05   -0.94970E-05  3674   0.763E-03
  89 F= -.23367478E+04 E0= -.23367478E+04  d E =-.325052E-03  mag=     1.0000
       N       E                     dE             d eps       ncg     rms          rms(c)
DAV:   1    -0.231662942067E+04    0.14422E-04   -0.17137E-02  4576   0.137E-01    0.353E-02
RMM:   2    -0.231662949103E+04   -0.70357E-04   -0.79060E-04  5792   0.247E-02    0.175E-02
RMM:   3    -0.231662948971E+04    0.13157E-05   -0.61081E-05  2863   0.771E-03
  90 F= -.23367478E+04 E0= -.23367478E+04  d E =-.329115E-03  mag=     1.0000
       N       E                     dE             d eps       ncg     rms          rms(c)
DAV:   1    -0.231662952786E+04   -0.36835E-04   -0.11154E-01  4360   0.351E-01    0.962E-02
RMM:   2    -0.231662987292E+04   -0.34506E-03   -0.39987E-03  5560   0.557E-02    0.435E-02
RMM:   3    -0.231662984718E+04    0.25744E-04   -0.21555E-04  3973   0.184E-02    0.264E-02
RMM:   4    -0.231662983687E+04    0.10302E-04   -0.71826E-05  3807   0.752E-03    0.103E-02
RMM:   5    -0.231662983611E+04    0.76840E-06   -0.10743E-05  2814   0.532E-03
  91 F= -.23367481E+04 E0= -.23367481E+04  d E =-.273897E-03  mag=     1.0000
       N       E                     dE             d eps       ncg     rms          rms(c)
DAV:   1    -0.231662983058E+04    0.62934E-05   -0.74066E-03  5064   0.911E-02    0.248E-02
RMM:   2    -0.231662985545E+04   -0.24868E-04   -0.28056E-04  5219   0.152E-02    0.110E-02
RMM:   3    -0.231662985414E+04    0.13070E-05   -0.19974E-05  2809   0.656E-03
  92 F= -.23367481E+04 E0= -.23367481E+04  d E =-.273185E-03  mag=     1.0000
       N       E                     dE             d eps       ncg     rms          rms(c)
DAV:   1    -0.231662972893E+04    0.12652E-03   -0.10267E-01  4360   0.333E-01    0.902E-02
RMM:   2    -0.231663008435E+04   -0.35541E-03   -0.40807E-03  5720   0.548E-02    0.423E-02
RMM:   3    -0.231663006608E+04    0.18266E-04   -0.23379E-04  3790   0.163E-02    0.262E-02
RMM:   4    -0.231663005625E+04    0.98368E-05   -0.68319E-05  3705   0.727E-03
  93 F= -.23367484E+04 E0= -.23367484E+04  d E =-.232867E-03  mag=     1.0000
       N       E                     dE             d eps       ncg     rms          rms(c)
DAV:   1    -0.231663004661E+04    0.19470E-04   -0.97451E-04  5296   0.333E-02    0.103E-02
RMM:   2    -0.231663005005E+04   -0.34341E-05   -0.43945E-05  3145   0.660E-03
  94 F= -.23367483E+04 E0= -.23367483E+04  d E =-.229737E-03  mag=     1.0000
       N       E                     dE             d eps       ncg     rms          rms(c)
DAV:   1    -0.231662989268E+04    0.15393E-03   -0.10064E-01  4360   0.327E-01    0.948E-02
RMM:   2    -0.231663031533E+04   -0.42265E-03   -0.48494E-03  5919   0.573E-02    0.443E-02
RMM:   3    -0.231663030769E+04    0.76416E-05   -0.36352E-04  4094   0.193E-02    0.274E-02
RMM:   4    -0.231663029864E+04    0.90474E-05   -0.77209E-05  3589   0.738E-03
  95 F= -.23367485E+04 E0= -.23367485E+04  d E =-.201046E-03  mag=     1.0000
       N       E                     dE             d eps       ncg     rms          rms(c)
DAV:   1    -0.231663029814E+04    0.95471E-05   -0.29286E-05  4064   0.785E-03    0.528E-03
RMM:   2    -0.231663029818E+04   -0.37937E-07   -0.51446E-06  2653   0.267E-03
  96 F= -.23367485E+04 E0= -.23367485E+04  d E =-.199737E-03  mag=     1.0000
       N       E                     dE             d eps       ncg     rms          rms(c)
DAV:   1    -0.231663005796E+04    0.24018E-03   -0.10149E-01  4376   0.322E-01    0.919E-02
RMM:   2    -0.231663066494E+04   -0.60698E-03   -0.67179E-03  5952   0.582E-02    0.445E-02
RMM:   3    -0.231663067279E+04   -0.78517E-05   -0.48466E-04  3851   0.176E-02    0.283E-02
RMM:   4    -0.231663066505E+04    0.77421E-05   -0.94040E-05  3304   0.692E-03
  97 F= -.23367488E+04 E0= -.23367488E+04  d E =-.230248E-03  mag=     1.0000
       N       E                     dE             d eps       ncg     rms          rms(c)
DAV:   1    -0.231663065466E+04    0.18132E-04   -0.61114E-03  5120   0.794E-02    0.236E-02
RMM:   2    -0.231663069177E+04   -0.37109E-04   -0.41668E-04  5398   0.153E-02    0.124E-02
RMM:   3    -0.231663069319E+04   -0.14205E-05   -0.40462E-05  2819   0.582E-03
  98 F= -.23367488E+04 E0= -.23367488E+04  d E =-.224217E-03  mag=     1.0000
       N       E                     dE             d eps       ncg     rms          rms(c)
DAV:   1    -0.231663050075E+04    0.19101E-03   -0.80888E-02  4388   0.286E-01    0.848E-02
RMM:   2    -0.231663105338E+04   -0.55263E-03   -0.60702E-03  5915   0.512E-02    0.421E-02
RMM:   3    -0.231663106580E+04   -0.12411E-04   -0.45915E-04  3541   0.157E-02    0.262E-02
RMM:   4    -0.231663106033E+04    0.54662E-05   -0.79760E-05  3026   0.612E-03
  99 F= -.23367490E+04 E0= -.23367490E+04  d E =-.257318E-03  mag=     1.0000
       N       E                     dE             d eps       ncg     rms          rms(c)
DAV:   1    -0.231663086959E+04    0.19620E-03   -0.41925E-02  4400   0.206E-01    0.608E-02
RMM:   2    -0.231663115916E+04   -0.28957E-03   -0.31753E-03  6014   0.372E-02    0.296E-02
RMM:   3    -0.231663116740E+04   -0.82379E-05   -0.25378E-04  3217   0.122E-02    0.184E-02
RMM:   4    -0.231663116480E+04    0.26040E-05   -0.41364E-05  2825   0.451E-03
 100 F= -.23367491E+04 E0= -.23367491E+04  d E =-.282046E-03  mag=     1.0000
       N       E                     dE             d eps       ncg     rms          rms(c)
DAV:   1    -0.231663094312E+04    0.22428E-03   -0.87297E-02  4388   0.295E-01    0.860E-02
RMM:   2    -0.231663150368E+04   -0.56056E-03   -0.61563E-03  6043   0.532E-02    0.420E-02
RMM:   3    -0.231663151780E+04   -0.14113E-04   -0.49323E-04  3657   0.168E-02    0.261E-02
RMM:   4    -0.231663151211E+04    0.56892E-05   -0.79935E-05  3033   0.620E-03
 101 F= -.23367493E+04 E0= -.23367493E+04  d E =-.240999E-03  mag=     1.0000
       N       E                     dE             d eps       ncg     rms          rms(c)
DAV:   1    -0.231663147161E+04    0.46190E-04   -0.13275E-02  4872   0.115E-01    0.342E-02
RMM:   2    -0.231663155905E+04   -0.87441E-04   -0.96057E-04  5811   0.221E-02    0.170E-02
RMM:   3    -0.231663156069E+04   -0.16411E-05   -0.67568E-05  2853   0.723E-03
 102 F= -.23367493E+04 E0= -.23367493E+04  d E =-.247802E-03  mag=     1.0000
       N       E                     dE             d eps       ncg     rms          rms(c)
DAV:   1    -0.231663155101E+04    0.80396E-05   -0.79368E-02  4388   0.283E-01    0.862E-02
RMM:   2    -0.231663192230E+04   -0.37130E-03   -0.42166E-03  5807   0.488E-02    0.411E-02
RMM:   3    -0.231663191609E+04    0.62109E-05   -0.30272E-04  3639   0.149E-02    0.246E-02
RMM:   4    -0.231663190901E+04    0.70802E-05   -0.68239E-05  3428   0.659E-03
 103 F= -.23367495E+04 E0= -.23367495E+04  d E =-.228199E-03  mag=     1.0000
       N       E                     dE             d eps       ncg     rms          rms(c)
DAV:   1    -0.231663191450E+04    0.15961E-05   -0.60851E-03  5112   0.789E-02    0.246E-02
RMM:   2    -0.231663194434E+04   -0.29840E-04   -0.33694E-04  5207   0.150E-02    0.118E-02
RMM:   3    -0.231663194435E+04   -0.16822E-07   -0.26637E-05  2813   0.596E-03
 104 F= -.23367495E+04 E0= -.23367495E+04  d E =-.229959E-03  mag=     1.0000
       N       E                     dE             d eps       ncg     rms          rms(c)
DAV:   1    -0.231663203506E+04   -0.90718E-04   -0.62971E-02  4400   0.253E-01    0.787E-02
RMM:   2    -0.231663227242E+04   -0.23737E-03   -0.27871E-03  5691   0.425E-02    0.360E-02
RMM:   3    -0.231663226172E+04    0.10705E-04   -0.19182E-04  3494   0.133E-02    0.215E-02
RMM:   4    -0.231663225705E+04    0.46656E-05   -0.57727E-05  3335   0.606E-03
 105 F= -.23367497E+04 E0= -.23367497E+04  d E =-.207749E-03  mag=     1.0000
       N       E                     dE             d eps       ncg     rms          rms(c)
DAV:   1    -0.231663226652E+04   -0.48051E-05   -0.24989E-03  5344   0.510E-02    0.164E-02
RMM:   2    -0.231663227656E+04   -0.10041E-04   -0.11821E-04  3960   0.979E-03    0.771E-03
RMM:   3    -0.231663227673E+04   -0.17225E-06   -0.12509E-05  2640   0.512E-03
 106 F= -.23367497E+04 E0= -.23367497E+04  d E =-.206270E-03  mag=     1.0000
       N       E                     dE             d eps       ncg     rms          rms(c)
DAV:   1    -0.231663237097E+04   -0.94410E-04   -0.58746E-02  4400   0.242E-01    0.748E-02
RMM:   2    -0.231663258418E+04   -0.21321E-03   -0.25207E-03  5667   0.397E-02    0.362E-02
RMM:   3    -0.231663257336E+04    0.10817E-04   -0.16566E-04  3435   0.135E-02    0.214E-02
RMM:   4    -0.231663256781E+04    0.55586E-05   -0.49352E-05  3275   0.605E-03
 107 F= -.23367499E+04 E0= -.23367499E+04  d E =-.193971E-03  mag=     1.0000
       N       E                     dE             d eps       ncg     rms          rms(c)
DAV:   1    -0.231663257579E+04   -0.24223E-05   -0.11861E-03  5312   0.351E-02    0.115E-02
RMM:   2    -0.231663258040E+04   -0.46129E-05   -0.56841E-05  3250   0.692E-03
 108 F= -.23367499E+04 E0= -.23367499E+04  d E =-.192453E-03  mag=     1.0000
       N       E                     dE             d eps       ncg     rms          rms(c)
DAV:   1    -0.231663266519E+04   -0.89408E-04   -0.56599E-02  4400   0.234E-01    0.752E-02
RMM:   2    -0.231663287478E+04   -0.20959E-03   -0.24664E-03  5948   0.409E-02    0.370E-02
RMM:   3    -0.231663286742E+04    0.73645E-05   -0.19891E-04  3608   0.138E-02    0.221E-02
RMM:   4    -0.231663286218E+04    0.52311E-05   -0.39997E-05  2897   0.543E-03
 109 F= -.23367501E+04 E0= -.23367501E+04  d E =-.187605E-03  mag=     1.0000
       N       E                     dE             d eps       ncg     rms          rms(c)
DAV:   1    -0.231663286871E+04   -0.12918E-05   -0.12351E-03  5312   0.351E-02    0.120E-02
RMM:   2    -0.231663287343E+04   -0.47201E-05   -0.59432E-05  3214   0.692E-03
 110 F= -.23367501E+04 E0= -.23367501E+04  d E =-.184542E-03  mag=     1.0000
       N       E                     dE             d eps       ncg     rms          rms(c)
DAV:   1    -0.231663290232E+04   -0.33608E-04   -0.60343E-02  4400   0.240E-01    0.776E-02
RMM:   2    -0.231663317245E+04   -0.27014E-03   -0.30977E-03  5987   0.426E-02    0.373E-02
RMM:   3    -0.231663316924E+04    0.32120E-05   -0.25504E-04  3612   0.144E-02    0.225E-02
RMM:   4    -0.231663316348E+04    0.57619E-05   -0.42834E-05  2892   0.543E-03
 111 F= -.23367503E+04 E0= -.23367503E+04  d E =-.176101E-03  mag=     1.0000
       N       E                     dE             d eps       ncg     rms          rms(c)
DAV:   1    -0.231663317102E+04   -0.17785E-05   -0.12393E-03  5248   0.349E-02    0.118E-02
RMM:   2    -0.231663317659E+04   -0.55700E-05   -0.68864E-05  3202   0.690E-03
 112 F= -.23367503E+04 E0= -.23367503E+04  d E =-.172306E-03  mag=     1.0000
       N       E                     dE             d eps       ncg     rms          rms(c)
DAV:   1    -0.231663319793E+04   -0.26917E-04   -0.46927E-02  4400   0.206E-01    0.663E-02
RMM:   2    -0.231663347930E+04   -0.28137E-03   -0.31223E-03  6097   0.382E-02    0.336E-02
RMM:   3    -0.231663348500E+04   -0.56982E-05   -0.25560E-04  3245   0.122E-02    0.208E-02
RMM:   4    -0.231663348180E+04    0.31997E-05   -0.38804E-05  2841   0.468E-03
 113 F= -.23367505E+04 E0= -.23367505E+04  d E =-.185738E-03  mag=     1.0000
       N       E                     dE             d eps       ncg     rms          rms(c)
DAV:   1    -0.231663338514E+04    0.99865E-04   -0.36671E-02  4400   0.182E-01    0.579E-02
RMM:   2    -0.231663360260E+04   -0.21746E-03   -0.24106E-03  6039   0.318E-02    0.287E-02
RMM:   3    -0.231663360384E+04   -0.12470E-05   -0.15354E-04  3099   0.106E-02    0.175E-02
RMM:   4    -0.231663360141E+04    0.24313E-05   -0.31348E-05  2840   0.443E-03
 114 F= -.23367505E+04 E0= -.23367505E+04  d E =-.198990E-03  mag=     1.0000
       N       E                     dE             d eps       ncg     rms          rms(c)
DAV:   1    -0.231663360397E+04   -0.12701E-06   -0.33632E-02  4432   0.171E-01    0.546E-02
RMM:   2    -0.231663383545E+04   -0.23148E-03   -0.25496E-03  6064   0.308E-02    0.271E-02
RMM:   3    -0.231663384034E+04   -0.48910E-05   -0.17014E-04  3019   0.994E-03    0.166E-02
RMM:   4    -0.231663383839E+04    0.19505E-05   -0.30831E-05  2838   0.400E-03
 115 F= -.23367506E+04 E0= -.23367506E+04  d E =-.146943E-03  mag=     1.0000
       N       E                     dE             d eps       ncg     rms          rms(c)
DAV:   1    -0.231663369234E+04    0.14799E-03   -0.40230E-02  4376   0.187E-01    0.597E-02
RMM:   2    -0.231663397761E+04   -0.28527E-03   -0.31338E-03  6071   0.338E-02    0.296E-02
RMM:   3    -0.231663398154E+04   -0.39279E-05   -0.18552E-04  3093   0.106E-02    0.186E-02
RMM:   4    -0.231663397884E+04    0.27015E-05   -0.37011E-05  2845   0.430E-03
 116 F= -.23367507E+04 E0= -.23367507E+04  d E =-.188620E-03  mag=     1.0000
       N       E                     dE             d eps       ncg     rms          rms(c)
DAV:   1    -0.231663407385E+04   -0.92308E-04   -0.24631E-02  4400   0.155E-01    0.552E-02
RMM:   2    -0.231663423393E+04   -0.16008E-03   -0.18206E-03  6006   0.294E-02    0.250E-02
RMM:   3    -0.231663423334E+04    0.59468E-06   -0.12376E-04  3050   0.977E-03    0.152E-02
RMM:   4    -0.231663423145E+04    0.18858E-05   -0.26371E-05  2830   0.407E-03
 117 F= -.23367509E+04 E0= -.23367509E+04  d E =-.189058E-03  mag=     1.0000
       N       E                     dE             d eps       ncg     rms          rms(c)
DAV:   1    -0.231663423207E+04    0.12665E-05   -0.11538E-02  4528   0.106E-01    0.378E-02
RMM:   2    -0.231663430557E+04   -0.73503E-04   -0.83313E-04  5794   0.208E-02    0.175E-02
RMM:   3    -0.231663430716E+04   -0.15910E-05   -0.78502E-05  2847   0.769E-03
 118 F= -.23367509E+04 E0= -.23367509E+04  d E =-.221012E-03  mag=     1.0000
       N       E                     dE             d eps       ncg     rms          rms(c)
DAV:   1    -0.231663440703E+04   -0.10146E-03   -0.12567E-02  4400   0.112E-01    0.414E-02
RMM:   2    -0.231663446129E+04   -0.54256E-04   -0.65631E-04  5650   0.201E-02    0.191E-02
RMM:   3    -0.231663445888E+04    0.24100E-05   -0.48840E-05  2829   0.686E-03
 119 F= -.23367510E+04 E0= -.23367510E+04  d E =-.116025E-03  mag=     1.0000
       N       E                     dE             d eps       ncg     rms          rms(c)
DAV:   1    -0.231663447177E+04   -0.10479E-04   -0.89806E-03  4528   0.950E-02    0.354E-02
RMM:   2    -0.231663450989E+04   -0.38125E-04   -0.47136E-04  5460   0.176E-02    0.170E-02
RMM:   3    -0.231663450928E+04    0.61502E-06   -0.52025E-05  2815   0.720E-03
 120 F= -.23367510E+04 E0= -.23367510E+04  d E =-.135857E-03  mag=     1.0000
       N       E                     dE             d eps       ncg     rms          rms(c)
DAV:   1    -0.231663459435E+04   -0.84459E-04   -0.15261E-02  4400   0.123E-01    0.421E-02
RMM:   2    -0.231663465740E+04   -0.63043E-04   -0.75631E-04  5629   0.209E-02    0.206E-02
RMM:   3    -0.231663465504E+04    0.23601E-05   -0.61764E-05  2837   0.764E-03
 121 F= -.23367511E+04 E0= -.23367511E+04  d E =-.104151E-03  mag=     1.0000
       N       E                     dE             d eps       ncg     rms          rms(c)
DAV:   1    -0.231663466360E+04   -0.62020E-05   -0.58038E-03  4648   0.757E-02    0.262E-02
RMM:   2    -0.231663468839E+04   -0.24792E-04   -0.29937E-04  5173   0.138E-02    0.134E-02
RMM:   3    -0.231663468855E+04   -0.15835E-06   -0.32969E-05  2810   0.587E-03
 122 F= -.23367511E+04 E0= -.23367511E+04  d E =-.111522E-03  mag=     1.0000
       N       E                     dE             d eps       ncg     rms          rms(c)
DAV:   1    -0.231663473502E+04   -0.46635E-04   -0.20613E-02  4388   0.145E-01    0.481E-02
RMM:   2    -0.231663483885E+04   -0.10383E-03   -0.12091E-03  5666   0.250E-02    0.232E-02
RMM:   3    -0.231663483636E+04    0.24875E-05   -0.97722E-05  2876   0.888E-03
 123 F= -.23367512E+04 E0= -.23367512E+04  d E =-.104867E-03  mag=     1.0000
       N       E                     dE             d eps       ncg     rms          rms(c)
DAV:   1    -0.231663483634E+04    0.25079E-05   -0.23671E-03  5224   0.492E-02    0.173E-02
RMM:   2    -0.231663484866E+04   -0.12320E-04   -0.15197E-04  4108   0.955E-03    0.895E-03
RMM:   3    -0.231663484838E+04    0.28021E-06   -0.12089E-05  2756   0.454E-03
 124 F= -.23367512E+04 E0= -.23367512E+04  d E =-.101755E-03  mag=     1.0000
       N       E                     dE             d eps       ncg     rms          rms(c)
DAV:   1    -0.231663483184E+04    0.16822E-04   -0.23088E-02  4400   0.153E-01    0.507E-02
RMM:   2    -0.231663499384E+04   -0.16200E-03   -0.18200E-03  5798   0.283E-02    0.236E-02
RMM:   3    -0.231663499543E+04   -0.15874E-05   -0.14161E-04  2969   0.966E-03    0.147E-02
RMM:   4    -0.231663499416E+04    0.12676E-05   -0.31040E-05  2833   0.405E-03
 125 F= -.23367513E+04 E0= -.23367513E+04  d E =-.900743E-04  mag=     1.0000
       N       E                     dE             d eps       ncg     rms          rms(c)
DAV:   1    -0.231663499528E+04    0.15020E-06   -0.65800E-05  5016   0.867E-03    0.419E-03
RMM:   2    -0.231663499567E+04   -0.38855E-06   -0.67541E-06  2466   0.210E-03
 126 F= -.23367513E+04 E0= -.23367513E+04  d E =-.885163E-04  mag=     1.0000
       N       E                     dE             d eps       ncg     rms          rms(c)
DAV:   1    -0.231663503719E+04   -0.41909E-04   -0.16884E-02  4400   0.134E-01    0.469E-02
RMM:   2    -0.231663516299E+04   -0.12580E-03   -0.14200E-03  5800   0.253E-02    0.209E-02
RMM:   3    -0.231663516377E+04   -0.77480E-06   -0.11165E-04  2984   0.104E-02    0.127E-02
RMM:   4    -0.231663516211E+04    0.16547E-05   -0.23347E-05  2824   0.368E-03
 127 F= -.23367514E+04 E0= -.23367514E+04  d E =-.102176E-03  mag=     1.0000
       N       E                     dE             d eps       ncg     rms          rms(c)
DAV:   1    -0.231663516888E+04   -0.51098E-05   -0.38144E-04  5080   0.205E-02    0.748E-03
RMM:   2    -0.231663517172E+04   -0.28428E-05   -0.35186E-05  2697   0.453E-03
 128 F= -.23367514E+04 E0= -.23367514E+04  d E =-.101826E-03  mag=     1.0000
       N       E                     dE             d eps       ncg     rms          rms(c)
DAV:   1    -0.231663521557E+04   -0.46694E-04   -0.11650E-02  4400   0.112E-01    0.396E-02
RMM:   2    -0.231663529242E+04   -0.76855E-04   -0.87969E-04  5754   0.218E-02    0.174E-02
RMM:   3    -0.231663529398E+04   -0.15594E-05   -0.89619E-05  2856   0.878E-03
 129 F= -.23367515E+04 E0= -.23367515E+04  d E =-.724672E-04  mag=     1.0000
       N       E                     dE             d eps       ncg     rms          rms(c)
DAV:   1    -0.231663530225E+04   -0.98308E-05   -0.90728E-04  5424   0.311E-02    0.139E-02
RMM:   2    -0.231663530739E+04   -0.51399E-05   -0.73463E-05  3074   0.599E-03
 130 F= -.23367515E+04 E0= -.23367515E+04  d E =-.715881E-04  mag=     1.0000
       N       E                     dE             d eps       ncg     rms          rms(c)
DAV:   1    -0.231663534369E+04   -0.41433E-04   -0.11575E-02  4400   0.110E-01    0.370E-02
RMM:   2    -0.231663540235E+04   -0.58662E-04   -0.68377E-04  5618   0.212E-02    0.176E-02
RMM:   3    -0.231663540221E+04    0.13606E-06   -0.69006E-05  2834   0.818E-03
 131 F= -.23367516E+04 E0= -.23367516E+04  d E =-.644642E-04  mag=     1.0000
       N       E                     dE             d eps       ncg     rms          rms(c)
DAV:   1    -0.231663540573E+04   -0.33815E-05   -0.68082E-04  5264   0.268E-02    0.108E-02
RMM:   2    -0.231663540868E+04   -0.29445E-05   -0.42410E-05  2848   0.522E-03
 132 F= -.23367516E+04 E0= -.23367516E+04  d E =-.632587E-04  mag=     1.0000
       N       E                     dE             d eps       ncg     rms          rms(c)
DAV:   1    -0.231663546207E+04   -0.56343E-04   -0.81687E-03  4400   0.910E-02    0.313E-02
RMM:   2    -0.231663549841E+04   -0.36332E-04   -0.42941E-04  5305   0.173E-02    0.147E-02
RMM:   3    -0.231663549802E+04    0.38312E-06   -0.39837E-05  2821   0.686E-03
 133 F= -.23367516E+04 E0= -.23367516E+04  d E =-.644887E-04  mag=     1.0000
       N       E                     dE             d eps       ncg     rms          rms(c)
DAV:   1    -0.231663550705E+04   -0.86443E-05   -0.39866E-03  4576   0.634E-02    0.217E-02
RMM:   2    -0.231663552394E+04   -0.16893E-04   -0.20380E-04  4663   0.116E-02    0.103E-02
RMM:   3    -0.231663552365E+04    0.29097E-06   -0.16360E-05  2802   0.475E-03
 134 F= -.23367516E+04 E0= -.23367516E+04  d E =-.724646E-04  mag=     1.0000
       N       E                     dE             d eps       ncg     rms          rms(c)
DAV:   1    -0.231663559499E+04   -0.71044E-04   -0.87860E-03  4400   0.934E-02    0.317E-02
RMM:   2    -0.231663563674E+04   -0.41749E-04   -0.48984E-04  5387   0.172E-02    0.151E-02
RMM:   3    -0.231663563584E+04    0.89816E-06   -0.41308E-05  2821   0.609E-03
 135 F= -.23367517E+04 E0= -.23367517E+04  d E =-.644578E-04  mag=     1.0000
       N       E                     dE             d eps       ncg     rms          rms(c)
DAV:   1    -0.231663565403E+04   -0.17293E-04   -0.20790E-03  5064   0.454E-02    0.175E-02
RMM:   2    -0.231663566236E+04   -0.83346E-05   -0.11442E-04  3726   0.840E-03    0.924E-03
RMM:   3    -0.231663566197E+04    0.39852E-06   -0.11387E-05  2758   0.461E-03
 136 F= -.23367517E+04 E0= -.23367517E+04  d E =-.670484E-04  mag=     1.0000
       N       E                     dE             d eps       ncg     rms          rms(c)
DAV:   1    -0.231663572041E+04   -0.58042E-04   -0.97988E-03  4400   0.983E-02    0.345E-02
RMM:   2    -0.231663577347E+04   -0.53064E-04   -0.62012E-04  5538   0.183E-02    0.161E-02
RMM:   3    -0.231663577283E+04    0.63861E-06   -0.49004E-05  2820   0.688E-03
 137 F= -.23367518E+04 E0= -.23367518E+04  d E =-.677168E-04  mag=     1.0000
       N       E                     dE             d eps       ncg     rms          rms(c)
DAV:   1    -0.231663578356E+04   -0.10094E-04   -0.13214E-03  5280   0.360E-02    0.146E-02
RMM:   2    -0.231663578992E+04   -0.63550E-05   -0.85374E-05  3324   0.681E-03
 138 F= -.23367518E+04 E0= -.23367518E+04  d E =-.685952E-04  mag=     1.0000
       N       E                     dE             d eps       ncg     rms          rms(c)
DAV:   1    -0.231663583205E+04   -0.48487E-04   -0.97100E-03  4400   0.961E-02    0.358E-02
RMM:   2    -0.231663589071E+04   -0.58657E-04   -0.67711E-04  5485   0.191E-02    0.172E-02
RMM:   3    -0.231663589102E+04   -0.31166E-06   -0.59753E-05  2834   0.745E-03
 139 F= -.23367518E+04 E0= -.23367518E+04  d E =-.651439E-04  mag=     1.0000
       N       E                     dE             d eps       ncg     rms          rms(c)
DAV:   1    -0.231663589944E+04   -0.87286E-05   -0.24894E-03  4784   0.486E-02    0.184E-02
RMM:   2    -0.231663591368E+04   -0.14248E-04   -0.16900E-04  4024   0.945E-03    0.915E-03
RMM:   3    -0.231663591389E+04   -0.20891E-06   -0.16407E-05  2794   0.459E-03
 140 F= -.23367518E+04 E0= -.23367518E+04  d E =-.694063E-04  mag=     1.0000
       N       E                     dE             d eps       ncg     rms          rms(c)
DAV:   1    -0.231663596509E+04   -0.51401E-04   -0.80053E-03  4400   0.861E-02    0.319E-02
RMM:   2    -0.231663601734E+04   -0.52251E-04   -0.61139E-04  5515   0.169E-02    0.153E-02
RMM:   3    -0.231663601707E+04    0.26748E-06   -0.48951E-05  2825   0.637E-03
 141 F= -.23367519E+04 E0= -.23367519E+04  d E =-.642106E-04  mag=     1.0000
       N       E                     dE             d eps       ncg     rms          rms(c)
DAV:   1    -0.231663602540E+04   -0.80636E-05   -0.72365E-04  5160   0.260E-02    0.105E-02
RMM:   2    -0.231663603010E+04   -0.47001E-05   -0.60280E-05  2927   0.555E-03
 142 F= -.23367519E+04 E0= -.23367519E+04  d E =-.650992E-04  mag=     1.0000
       N       E                     dE             d eps       ncg     rms          rms(c)
DAV:   1    -0.231663607275E+04   -0.47352E-04   -0.78072E-03  4400   0.842E-02    0.329E-02
RMM:   2    -0.231663612470E+04   -0.51945E-04   -0.60076E-04  5438   0.171E-02    0.159E-02
RMM:   3    -0.231663612556E+04   -0.85935E-06   -0.59914E-05  2817   0.700E-03
 143 F= -.23367520E+04 E0= -.23367520E+04  d E =-.560840E-04  mag=     1.0000
       N       E                     dE             d eps       ncg     rms          rms(c)
DAV:   1    -0.231663613426E+04   -0.95599E-05   -0.77698E-04  5128   0.266E-02    0.120E-02
RMM:   2    -0.231663613923E+04   -0.49768E-05   -0.62948E-05  2948   0.560E-03
 144 F= -.23367520E+04 E0= -.23367520E+04  d E =-.569224E-04  mag=     1.0000
       N       E                     dE             d eps       ncg     rms          rms(c)
DAV:   1    -0.231663618803E+04   -0.53772E-04   -0.81857E-03  4400   0.876E-02    0.341E-02
RMM:   2    -0.231663623708E+04   -0.49054E-04   -0.57625E-04  5464   0.179E-02    0.167E-02
RMM:   3    -0.231663623756E+04   -0.48149E-06   -0.59341E-05  2824   0.740E-03
 145 F= -.23367520E+04 E0= -.23367520E+04  d E =-.542729E-04  mag=     1.0000
       N       E                     dE             d eps       ncg     rms          rms(c)
DAV:   1    -0.231663624091E+04   -0.38242E-05   -0.87457E-05  5088   0.937E-03    0.646E-03
RMM:   2    -0.231663624136E+04   -0.45629E-06   -0.11115E-05  2437   0.255E-03
 146 F= -.23367520E+04 E0= -.23367520E+04  d E =-.532661E-04  mag=     1.0000
       N       E                     dE             d eps       ncg     rms          rms(c)
DAV:   1    -0.231663629514E+04   -0.54234E-04   -0.82731E-03  4388   0.887E-02    0.346E-02
RMM:   2    -0.231663634209E+04   -0.46949E-04   -0.55558E-04  5494   0.171E-02    0.160E-02
RMM:   3    -0.231663634191E+04    0.18490E-06   -0.51682E-05  2829   0.790E-03
 147 F= -.23367521E+04 E0= -.23367521E+04  d E =-.520146E-04  mag=     1.0000
       N       E                     dE             d eps       ncg     rms          rms(c)
DAV:   1    -0.231663634696E+04   -0.48653E-05   -0.14679E-04  5064   0.119E-02    0.675E-03
RMM:   2    -0.231663634773E+04   -0.77422E-06   -0.15004E-05  2488   0.296E-03
 148 F= -.23367521E+04 E0= -.23367521E+04  d E =-.509063E-04  mag=     1.0000
       N       E                     dE             d eps       ncg     rms          rms(c)
DAV:   1    -0.231663640305E+04   -0.56095E-04   -0.67936E-03  4388   0.782E-02    0.302E-02
RMM:   2    -0.231663644318E+04   -0.40134E-04   -0.47237E-04  5356   0.156E-02    0.149E-02
RMM:   3    -0.231663644384E+04   -0.66044E-06   -0.48951E-05  2817   0.678E-03
 149 F= -.23367521E+04 E0= -.23367521E+04  d E =-.549149E-04  mag=     1.0000
       N       E                     dE             d eps       ncg     rms          rms(c)
DAV:   1    -0.231663645637E+04   -0.13184E-04   -0.95797E-04  5176   0.294E-02    0.130E-02
RMM:   2    -0.231663646181E+04   -0.54436E-05   -0.74418E-05  3157   0.615E-03
 150 F= -.23367521E+04 E0= -.23367521E+04  d E =-.569506E-04  mag=     1.0000
