       N       E                     dE             d eps       ncg     rms          rms(c)
DAV:   1     0.120993819841E+05    0.12099E+05   -0.82947E+05  4640   0.140E+03
DAV:   2    -0.129018517728E+04   -0.13390E+05   -0.12880E+05  5040   0.318E+02
DAV:   3    -0.248831900302E+04   -0.11981E+04   -0.11884E+04  5520   0.101E+02
DAV:   4    -0.251343881748E+04   -0.25120E+02   -0.25001E+02  5760   0.176E+01
DAV:   5    -0.251406273372E+04   -0.62392E+00   -0.62297E+00  5760   0.243E+00    0.170E+02
RMM:   6    -0.147800361040E+04    0.10361E+04   -0.18826E+03  4502   0.376E+01    0.731E+01
RMM:   7    -0.163901187197E+04   -0.16101E+03   -0.28163E+02  5093   0.140E+01    0.537E+01
RMM:   8    -0.169110606303E+04   -0.52094E+02   -0.67727E+01  5256   0.767E+00    0.388E+01
RMM:   9    -0.179268868624E+04   -0.10158E+03   -0.53137E+01  4994   0.699E+00    0.332E+01
RMM:  10    -0.191921048292E+04   -0.12652E+03   -0.55693E+01  5290   0.696E+00    0.241E+01
RMM:  11    -0.202686836206E+04   -0.10766E+03   -0.48004E+01  5107   0.554E+00    0.161E+01
RMM:  12    -0.209421769653E+04   -0.67349E+02   -0.29407E+01  5008   0.421E+00    0.129E+01
RMM:  13    -0.222192453397E+04   -0.12771E+03   -0.10174E+02  4531   0.702E+00    0.103E+01
RMM:  14    -0.228197715587E+04   -0.60053E+02   -0.55377E+01  4645   0.512E+00    0.621E+00
RMM:  15    -0.229568633072E+04   -0.13709E+02   -0.15320E+01  4938   0.327E+00    0.474E+00
RMM:  16    -0.230054541410E+04   -0.48591E+01   -0.62511E+00  4915   0.151E+00    0.282E+00
RMM:  17    -0.230283823423E+04   -0.22928E+01   -0.13966E+00  4864   0.971E-01    0.425E+00
RMM:  18    -0.230334592862E+04   -0.50769E+00   -0.30734E-01  5328   0.368E-01    0.315E+00
RMM:  19    -0.230375767805E+04   -0.41175E+00   -0.18513E-01  4579   0.302E-01    0.163E+00
RMM:  20    -0.230433729471E+04   -0.57962E+00   -0.22959E-01  4505   0.324E-01    0.864E-01
RMM:  21    -0.230452163709E+04   -0.18434E+00   -0.93835E-02  4744   0.228E-01    0.540E-01
RMM:  22    -0.230459423317E+04   -0.72596E-01   -0.47211E-02  4731   0.130E-01    0.290E-01
RMM:  23    -0.230465120039E+04   -0.56967E-01   -0.21855E-02  4576   0.107E-01    0.271E-01
RMM:  24    -0.230467217614E+04   -0.20976E-01   -0.74577E-03  4627   0.627E-02    0.155E-01
RMM:  25    -0.230468403705E+04   -0.11861E-01   -0.32501E-03  4664   0.436E-02    0.101E-01
RMM:  26    -0.230469158931E+04   -0.75523E-02   -0.17110E-03  4550   0.282E-02    0.490E-02
RMM:  27    -0.230469607744E+04   -0.44881E-02   -0.78942E-04  4276   0.230E-02    0.354E-02
RMM:  28    -0.230469945552E+04   -0.33781E-02   -0.60571E-04  4075   0.152E-02    0.210E-02
RMM:  29    -0.230470150778E+04   -0.20523E-02   -0.51881E-04  4082   0.150E-02    0.962E-03
RMM:  30    -0.230470186286E+04   -0.35508E-03   -0.14219E-04  4030   0.965E-03    0.509E-03
RMM:  31    -0.230470196529E+04   -0.10243E-03   -0.28085E-05  3214   0.421E-03    0.363E-03
RMM:  32    -0.230470202025E+04   -0.54961E-04   -0.11316E-05  2984   0.355E-03    0.223E-03
RMM:  33    -0.230470203849E+04   -0.18241E-04   -0.58049E-06  2908   0.251E-03    0.134E-03
RMM:  34    -0.230470204492E+04   -0.64323E-05   -0.28125E-06  2526   0.199E-03
   1 F= -.23250444E+04 E0= -.23250444E+04  d E =-.724631E-12  mag=     0.9999
       N       E                     dE             d eps       ncg     rms          rms(c)
DAV:   1    -0.230463376373E+04    0.68275E-01   -0.21560E+00  4480   0.658E-01    0.377E-01
RMM:   2    -0.230463374596E+04    0.17773E-04   -0.11704E-02  4174   0.453E-02    0.241E-01
RMM:   3    -0.230463386923E+04   -0.12327E-03   -0.25008E-03  5085   0.216E-02    0.276E-01
RMM:   4    -0.230463351946E+04    0.34977E-03   -0.16879E-03  4637   0.166E-02    0.180E-01
RMM:   5    -0.230463311691E+04    0.40255E-03   -0.57809E-04  3851   0.115E-02    0.490E-02
RMM:   6    -0.230463310700E+04    0.99135E-05   -0.84900E-05  2956   0.443E-03
   2 F= -.23249752E+04 E0= -.23249752E+04  d E =-.117798E-11  mag=     1.0000
       N       E                     dE             d eps       ncg     rms          rms(c)
DAV:   1    -0.230473585656E+04   -0.10274E+00   -0.85600E+00  4480   0.129E+00    0.739E-01
RMM:   2    -0.230473624228E+04   -0.38572E-03   -0.48840E-02  4375   0.929E-02    0.445E-01
RMM:   3    -0.230473509086E+04    0.11514E-02   -0.77214E-03  5876   0.389E-02    0.386E-01
RMM:   4    -0.230473498893E+04    0.10193E-03   -0.53471E-03  5374   0.276E-02    0.338E-01
RMM:   5    -0.230473356873E+04    0.14202E-02   -0.17765E-03  4424   0.194E-02    0.895E-02
RMM:   6    -0.230473350966E+04    0.59072E-04   -0.25278E-04  3198   0.694E-03    0.436E-02
RMM:   7    -0.230473351685E+04   -0.71988E-05   -0.71371E-05  3182   0.458E-03
   3 F= -.23250762E+04 E0= -.23250762E+04  d E =-.234765E-11  mag=     1.0000
       N       E                     dE             d eps       ncg     rms          rms(c)
DAV:   1    -0.230470488330E+04    0.28626E-01   -0.39238E+00  4480   0.851E-01    0.513E-01
RMM:   2    -0.230470575604E+04   -0.87274E-03   -0.17194E-02  4429   0.550E-02    0.421E-01
RMM:   3    -0.230470541073E+04    0.34531E-03   -0.54966E-03  5366   0.311E-02    0.404E-01
RMM:   4    -0.230470423989E+04    0.11708E-02   -0.28679E-03  4908   0.241E-02    0.199E-01
RMM:   5    -0.230470382151E+04    0.41838E-03   -0.83629E-04  4298   0.134E-02    0.794E-02
RMM:   6    -0.230470381804E+04    0.34641E-05   -0.14639E-04  3128   0.594E-03    0.440E-02
RMM:   7    -0.230470381770E+04    0.33758E-06   -0.39109E-05  2947   0.403E-03
   4 F= -.23250453E+04 E0= -.23250453E+04  d E =-.173809E-11  mag=     1.0000
       N       E                     dE             d eps       ncg     rms          rms(c)
DAV:   1    -0.230470002142E+04    0.37966E-02   -0.74075E+00  4480   0.103E+00    0.619E-01
RMM:   2    -0.230470145129E+04   -0.14299E-02   -0.25212E-02  4680   0.606E-02    0.523E-01
RMM:   3    -0.230470129531E+04    0.15597E-03   -0.91655E-03  5671   0.386E-02    0.497E-01
RMM:   4    -0.230469863996E+04    0.26554E-02   -0.29604E-03  4714   0.255E-02    0.163E-01
RMM:   5    -0.230469860144E+04    0.38521E-04   -0.80820E-04  4197   0.134E-02    0.939E-02
RMM:   6    -0.230469855798E+04    0.43458E-04   -0.17194E-04  3240   0.717E-03    0.505E-02
RMM:   7    -0.230469855444E+04    0.35461E-05   -0.57104E-05  3052   0.488E-03
   5 F= -.23250421E+04 E0= -.23250421E+04  d E =-.352217E-12  mag=     1.0000
       N       E                     dE             d eps       ncg     rms          rms(c)
DAV:   1    -0.230467395251E+04    0.24605E-01   -0.37059E+00  4480   0.841E-01    0.475E-01
RMM:   2    -0.230467511314E+04   -0.11606E-02   -0.14801E-02  4753   0.520E-02    0.436E-01
RMM:   3    -0.230467456304E+04    0.55009E-03   -0.56079E-03  5424   0.309E-02    0.383E-01
RMM:   4    -0.230467303336E+04    0.15297E-02   -0.16560E-03  4602   0.177E-02    0.105E-01
RMM:   5    -0.230467303589E+04   -0.25289E-05   -0.42124E-04  3587   0.109E-02    0.521E-02
RMM:   6    -0.230467303044E+04    0.54507E-05   -0.90544E-05  3057   0.562E-03
   6 F= -.23250146E+04 E0= -.23250146E+04  d E =-.312449E-11  mag=     1.0000
       N       E                     dE             d eps       ncg     rms          rms(c)
DAV:   1    -0.230471504082E+04   -0.42005E-01   -0.78868E+00  4480   0.122E+00    0.698E-01
RMM:   2    -0.230473045159E+04   -0.15411E-01   -0.60623E-02  5623   0.996E-02    0.117E+00
RMM:   3    -0.230471126972E+04    0.19182E-01   -0.16377E-02  5552   0.553E-02    0.301E-01
RMM:   4    -0.230471075181E+04    0.51791E-03   -0.46285E-03  4750   0.226E-02    0.158E-01
RMM:   5    -0.230471062445E+04    0.12736E-03   -0.63123E-04  3838   0.139E-02    0.911E-02
RMM:   6    -0.230471058889E+04    0.35559E-04   -0.20282E-04  3287   0.790E-03    0.509E-02
RMM:   7    -0.230471057866E+04    0.10227E-04   -0.72095E-05  3129   0.562E-03    0.175E-02
RMM:   8    -0.230471057830E+04    0.35754E-06   -0.11388E-05  2902   0.341E-03
   7 F= -.23250542E+04 E0= -.23250542E+04  d E =-.351062E-11  mag=     1.0000
       N       E                     dE             d eps       ncg     rms          rms(c)
DAV:   1    -0.230473305667E+04   -0.22478E-01   -0.38236E+00  4480   0.795E-01    0.453E-01
RMM:   2    -0.230473766266E+04   -0.46060E-02   -0.23390E-02  5519   0.646E-02    0.692E-01
RMM:   3    -0.230473198675E+04    0.56759E-02   -0.54464E-03  5015   0.325E-02    0.230E-01
RMM:   4    -0.230473169648E+04    0.29027E-03   -0.16372E-03  4357   0.154E-02    0.110E-01
RMM:   5    -0.230473167828E+04    0.18200E-04   -0.28975E-04  3454   0.113E-02    0.590E-02
RMM:   6    -0.230473169269E+04   -0.14409E-04   -0.12625E-04  3206   0.660E-03    0.372E-02
RMM:   7    -0.230473167404E+04    0.18645E-04   -0.32880E-05  2981   0.473E-03    0.113E-02
RMM:   8    -0.230473167402E+04    0.23836E-07   -0.72423E-06  2834   0.233E-03
   8 F= -.23250744E+04 E0= -.23250744E+04  d E =-.356844E-11  mag=     1.0000
       N       E                     dE             d eps       ncg     rms          rms(c)
DAV:   1    -0.230465813429E+04    0.73540E-01   -0.75205E+00  4480   0.951E-01    0.537E-01
RMM:   2    -0.230465758252E+04    0.55177E-03   -0.30894E-02  4591   0.648E-02    0.310E-01
RMM:   3    -0.230465697934E+04    0.60318E-03   -0.45450E-03  4954   0.363E-02    0.231E-01
RMM:   4    -0.230465682042E+04    0.15892E-03   -0.18918E-03  4594   0.191E-02    0.193E-01
RMM:   5    -0.230465644234E+04    0.37808E-03   -0.34809E-04  4317   0.927E-03    0.674E-02
RMM:   6    -0.230465641470E+04    0.27642E-04   -0.16015E-04  3118   0.761E-03    0.314E-02
RMM:   7    -0.230465640341E+04    0.11288E-04   -0.24749E-05  2941   0.400E-03    0.885E-03
RMM:   8    -0.230465640334E+04    0.69296E-07   -0.84461E-06  2889   0.235E-03
   9 F= -.23249984E+04 E0= -.23249984E+04  d E =-.201188E-11  mag=     1.0000
       N       E                     dE             d eps       ncg     rms          rms(c)
DAV:   1    -0.230474075521E+04   -0.84352E-01   -0.40996E+00  4480   0.734E-01    0.424E-01
RMM:   2    -0.230474069301E+04    0.62209E-04   -0.24825E-02  4828   0.595E-02    0.283E-01
RMM:   3    -0.230474172913E+04   -0.10361E-02   -0.51046E-03  4722   0.374E-02    0.410E-01
RMM:   4    -0.230473959942E+04    0.21297E-02   -0.22382E-03  5057   0.200E-02    0.865E-02
RMM:   5    -0.230473954848E+04    0.50936E-04   -0.28340E-04  3464   0.651E-03    0.332E-02
RMM:   6    -0.230473955139E+04   -0.29083E-05   -0.71695E-05  2977   0.583E-03
  10 F= -.23250829E+04 E0= -.23250829E+04  d E =-.938043E-11  mag=     1.0000
       N       E                     dE             d eps       ncg     rms          rms(c)
DAV:   1    -0.230463787772E+04    0.10167E+00   -0.78351E+00  4480   0.983E-01    0.590E-01
RMM:   2    -0.230463817347E+04   -0.29575E-03   -0.46272E-02  4635   0.765E-02    0.392E-01
RMM:   3    -0.230463997685E+04   -0.18034E-02   -0.10305E-02  5039   0.484E-02    0.585E-01
RMM:   4    -0.230463571565E+04    0.42612E-02   -0.40625E-03  5503   0.277E-02    0.113E-01
RMM:   5    -0.230463564602E+04    0.69628E-04   -0.55378E-04  3347   0.102E-02    0.520E-02
RMM:   6    -0.230463565450E+04   -0.84865E-05   -0.15356E-04  3369   0.612E-03    0.342E-02
RMM:   7    -0.230463564018E+04    0.14319E-04   -0.34176E-05  2995   0.470E-03    0.158E-02
RMM:   8    -0.230463563916E+04    0.10246E-05   -0.10745E-05  2855   0.266E-03
  11 F= -.23249772E+04 E0= -.23249772E+04  d E =-.458573E-12  mag=     1.0000
       N       E                     dE             d eps       ncg     rms          rms(c)
DAV:   1    -0.230470049374E+04   -0.64854E-01   -0.35209E+00  4480   0.728E-01    0.405E-01
RMM:   2    -0.230469955982E+04    0.93392E-03   -0.13855E-02  4612   0.441E-02    0.211E-01
RMM:   3    -0.230469934854E+04    0.21128E-03   -0.25339E-03  4436   0.306E-02    0.183E-01
RMM:   4    -0.230469907855E+04    0.26999E-03   -0.83776E-04  4038   0.122E-02    0.977E-02
RMM:   5    -0.230469901296E+04    0.65588E-04   -0.19607E-04  3192   0.799E-03    0.521E-02
RMM:   6    -0.230469899545E+04    0.17509E-04   -0.62657E-05  3068   0.478E-03    0.274E-02
RMM:   7    -0.230469899255E+04    0.29001E-05   -0.18162E-05  2888   0.333E-03
  12 F= -.23250439E+04 E0= -.23250439E+04  d E =-.182289E-10  mag=     1.0000
       N       E                     dE             d eps       ncg     rms          rms(c)
DAV:   1    -0.230470896450E+04   -0.99691E-02   -0.70011E+00  4480   0.103E+00    0.535E-01
RMM:   2    -0.230470860582E+04    0.35868E-03   -0.21514E-02  4547   0.571E-02    0.351E-01
RMM:   3    -0.230471060976E+04   -0.20039E-02   -0.63561E-03  5008   0.335E-02    0.500E-01
RMM:   4    -0.230470793413E+04    0.26756E-02   -0.27402E-03  5131   0.227E-02    0.189E-01
RMM:   5    -0.230470794293E+04   -0.88056E-05   -0.92450E-04  4127   0.118E-02    0.134E-01
RMM:   6    -0.230470791993E+04    0.23002E-04   -0.40302E-04  3360   0.103E-02    0.753E-02
RMM:   7    -0.230470789343E+04    0.26503E-04   -0.11392E-04  3165   0.615E-03    0.275E-02
RMM:   8    -0.230470788600E+04    0.74302E-05   -0.19947E-05  2879   0.351E-03
  13 F= -.23250482E+04 E0= -.23250482E+04  d E =-.212329E-11  mag=     1.0000
       N       E                     dE             d eps       ncg     rms          rms(c)
DAV:   1    -0.230470555051E+04    0.23429E-02   -0.20916E+00  4480   0.590E-01    0.400E-01
RMM:   2    -0.230470438243E+04    0.11681E-02   -0.12718E-02  4503   0.459E-02    0.246E-01
RMM:   3    -0.230470407216E+04    0.31027E-03   -0.19829E-03  4785   0.213E-02    0.210E-01
RMM:   4    -0.230470401490E+04    0.57254E-04   -0.11136E-03  4255   0.134E-02    0.185E-01
RMM:   5    -0.230470371360E+04    0.30130E-03   -0.59887E-04  3775   0.116E-02    0.853E-02
RMM:   6    -0.230470365784E+04    0.55764E-04   -0.10022E-04  3046   0.600E-03    0.385E-02
RMM:   7    -0.230470366006E+04   -0.22229E-05   -0.37879E-05  2914   0.366E-03
  14 F= -.23250467E+04 E0= -.23250467E+04  d E =-.176057E-11  mag=     1.0000
       N       E                     dE             d eps       ncg     rms          rms(c)
DAV:   1    -0.230468459350E+04    0.19064E-01   -0.12841E+00  4880   0.499E-01    0.595E-01
RMM:   2    -0.230468109985E+04    0.34937E-02   -0.23128E-02  4983   0.583E-02    0.424E-01
RMM:   3    -0.230468087194E+04    0.22791E-03   -0.65486E-03  5306   0.362E-02    0.440E-01
RMM:   4    -0.230467906915E+04    0.18028E-02   -0.29400E-03  4940   0.241E-02    0.226E-01
RMM:   5    -0.230467847473E+04    0.59442E-03   -0.10910E-03  4385   0.161E-02    0.760E-02
RMM:   6    -0.230467838321E+04    0.91518E-04   -0.12418E-04  3197   0.589E-03    0.155E-02
RMM:   7    -0.230467837957E+04    0.36396E-05   -0.17968E-05  2736   0.300E-03
  15 F= -.23250201E+04 E0= -.23250201E+04  d E =-.234486E-11  mag=     1.0000
       N       E                     dE             d eps       ncg     rms          rms(c)
DAV:   1    -0.230470063918E+04   -0.22256E-01   -0.62032E-01  4800   0.337E-01    0.359E-01
RMM:   2    -0.230469988054E+04    0.75864E-03   -0.67365E-03  4682   0.324E-02    0.275E-01
RMM:   3    -0.230469995367E+04   -0.73129E-04   -0.26094E-03  4773   0.220E-02    0.287E-01
RMM:   4    -0.230469911273E+04    0.84095E-03   -0.11097E-03  4072   0.158E-02    0.120E-01
RMM:   5    -0.230469894442E+04    0.16831E-03   -0.36401E-04  3651   0.101E-02    0.409E-02
RMM:   6    -0.230469891859E+04    0.25832E-04   -0.35843E-05  2864   0.398E-03    0.116E-02
RMM:   7    -0.230469891733E+04    0.12528E-05   -0.76773E-06  2659   0.217E-03
  16 F= -.23250410E+04 E0= -.23250410E+04  d E =-.212336E-10  mag=     1.0000
       N       E                     dE             d eps       ncg     rms          rms(c)
DAV:   1    -0.230470459890E+04   -0.56803E-02   -0.11868E+00  4640   0.467E-01    0.377E-01
RMM:   2    -0.230470434492E+04    0.25398E-03   -0.34726E-03  3982   0.255E-02    0.242E-01
RMM:   3    -0.230470603719E+04   -0.16923E-02   -0.30827E-03  5205   0.205E-02    0.395E-01
RMM:   4    -0.230470406049E+04    0.19767E-02   -0.13540E-03  4399   0.173E-02    0.406E-02
RMM:   5    -0.230470404496E+04    0.15532E-04   -0.14742E-04  3072   0.535E-03    0.249E-02
RMM:   6    -0.230470403792E+04    0.70445E-05   -0.20378E-05  2761   0.329E-03
  17 F= -.23250467E+04 E0= -.23250467E+04  d E =-.233486E-11  mag=     1.0000
       N       E                     dE             d eps       ncg     rms          rms(c)
DAV:   1    -0.230470166793E+04    0.23770E-02   -0.60634E-01  4800   0.341E-01    0.318E-01
RMM:   2    -0.230470108632E+04    0.58160E-03   -0.47940E-03  4350   0.267E-02    0.214E-01
RMM:   3    -0.230470144670E+04   -0.36038E-03   -0.18685E-03  4723   0.180E-02    0.260E-01
RMM:   4    -0.230470076527E+04    0.68143E-03   -0.93363E-04  3866   0.140E-02    0.109E-01
RMM:   5    -0.230470063008E+04    0.13519E-03   -0.25919E-04  3373   0.897E-03    0.357E-02
RMM:   6    -0.230470061324E+04    0.16839E-04   -0.24373E-05  2706   0.341E-03    0.124E-02
RMM:   7    -0.230470061254E+04    0.70326E-06   -0.68405E-06  2581   0.195E-03
  18 F= -.23250428E+04 E0= -.23250428E+04  d E =-.207829E-10  mag=     1.0000
       N       E                     dE             d eps       ncg     rms          rms(c)
DAV:   1    -0.230469706096E+04    0.35523E-02   -0.12066E+00  4960   0.478E-01    0.473E-01
RMM:   2    -0.230469635314E+04    0.70781E-03   -0.13184E-02  4972   0.449E-02    0.415E-01
RMM:   3    -0.230469588095E+04    0.47220E-03   -0.49137E-03  5220   0.323E-02    0.365E-01
RMM:   4    -0.230469454575E+04    0.13352E-02   -0.17831E-03  4347   0.204E-02    0.149E-01
RMM:   5    -0.230469431753E+04    0.22822E-03   -0.58999E-04  3842   0.125E-02    0.540E-02
RMM:   6    -0.230469427826E+04    0.39270E-04   -0.66086E-05  3028   0.467E-03    0.145E-02
RMM:   7    -0.230469427705E+04    0.12064E-05   -0.11846E-05  2747   0.255E-03
  19 F= -.23250368E+04 E0= -.23250368E+04  d E =-.190751E-10  mag=     1.0000
