       N       E                     dE             d eps       ncg     rms          rms(c)
DAV:   1     0.123740379686E+05    0.12374E+05   -0.83722E+05  4640   0.141E+03
DAV:   2    -0.125400438756E+04   -0.13628E+05   -0.13091E+05  4960   0.321E+02
DAV:   3    -0.249014856799E+04   -0.12361E+04   -0.12255E+04  5440   0.104E+02
DAV:   4    -0.251792241326E+04   -0.27774E+02   -0.27593E+02  5600   0.194E+01
DAV:   5    -0.251881856786E+04   -0.89615E+00   -0.89455E+00  5840   0.291E+00    0.170E+02
RMM:   6    -0.148697778582E+04    0.10318E+04   -0.19009E+03  4507   0.376E+01    0.728E+01
RMM:   7    -0.166890910708E+04   -0.18193E+03   -0.30308E+02  5205   0.144E+01    0.559E+01
RMM:   8    -0.170194968618E+04   -0.33041E+02   -0.77666E+01  5203   0.802E+00    0.444E+01
RMM:   9    -0.178300009810E+04   -0.81050E+02   -0.60762E+01  4984   0.749E+00    0.366E+01
RMM:  10    -0.188707032737E+04   -0.10407E+03   -0.49515E+01  5215   0.661E+00    0.356E+01
RMM:  11    -0.195422290134E+04   -0.67153E+02   -0.33819E+01  5354   0.488E+00    0.210E+01
RMM:  12    -0.204480420583E+04   -0.90581E+02   -0.34389E+01  4746   0.450E+00    0.149E+01
RMM:  13    -0.218839103311E+04   -0.14359E+03   -0.10762E+02  4557   0.733E+00    0.127E+01
RMM:  14    -0.226199592315E+04   -0.73605E+02   -0.60946E+01  4750   0.564E+00    0.905E+00
RMM:  15    -0.229971920085E+04   -0.37723E+02   -0.35465E+01  4757   0.436E+00    0.530E+00
RMM:  16    -0.230782704038E+04   -0.81078E+01   -0.91210E+00  4925   0.241E+00    0.320E+00
RMM:  17    -0.231297083115E+04   -0.51438E+01   -0.40852E+00  4567   0.134E+00    0.204E+00
RMM:  18    -0.231447385693E+04   -0.15030E+01   -0.96963E-01  4764   0.874E-01    0.110E+00
RMM:  19    -0.231525913876E+04   -0.78528E+00   -0.37439E-01  4754   0.378E-01    0.653E-01
RMM:  20    -0.231541734418E+04   -0.15821E+00   -0.86315E-02  4690   0.274E-01    0.282E-01
RMM:  21    -0.231547404966E+04   -0.56705E-01   -0.26698E-02  4881   0.117E-01    0.223E-01
RMM:  22    -0.231549736822E+04   -0.23319E-01   -0.11163E-02  4543   0.922E-02    0.114E-01
RMM:  23    -0.231551198909E+04   -0.14621E-01   -0.53262E-03  4629   0.589E-02    0.120E-01
RMM:  24    -0.231552115483E+04   -0.91657E-02   -0.28030E-03  4606   0.438E-02    0.540E-02
RMM:  25    -0.231552790796E+04   -0.67531E-02   -0.22614E-03  4528   0.351E-02    0.581E-02
RMM:  26    -0.231552996441E+04   -0.20564E-02   -0.73593E-04  4280   0.267E-02    0.345E-02
RMM:  27    -0.231553137211E+04   -0.14077E-02   -0.49744E-04  4075   0.165E-02    0.148E-02
RMM:  28    -0.231553206429E+04   -0.69219E-03   -0.22695E-04  3864   0.152E-02    0.107E-02
RMM:  29    -0.231553226137E+04   -0.19707E-03   -0.84978E-05  3708   0.834E-03    0.527E-03
RMM:  30    -0.231553237609E+04   -0.11473E-03   -0.34111E-05  3386   0.602E-03    0.372E-03
RMM:  31    -0.231553242590E+04   -0.49805E-04   -0.16684E-05  3079   0.407E-03    0.193E-03
RMM:  32    -0.231553244975E+04   -0.23859E-04   -0.95492E-06  2948   0.333E-03    0.101E-03
RMM:  33    -0.231553245504E+04   -0.52900E-05   -0.41642E-06  2524   0.235E-03
   1 F= -.23363862E+04 E0= -.23363862E+04  d E =-.148546E-10  mag=     6.0001
       N       E                     dE             d eps       ncg     rms          rms(c)
DAV:   1    -0.231551934468E+04    0.13105E-01   -0.21602E+00  4320   0.664E-01    0.316E-01
RMM:   2    -0.231551812264E+04    0.12220E-02   -0.91728E-03  3670   0.373E-02    0.195E-01
RMM:   3    -0.231551839665E+04   -0.27401E-03   -0.30602E-03  4919   0.214E-02    0.362E-01
RMM:   4    -0.231551744594E+04    0.95071E-03   -0.15975E-03  3902   0.141E-02    0.820E-02
RMM:   5    -0.231551740206E+04    0.43876E-04   -0.27562E-04  2989   0.778E-03    0.503E-02
RMM:   6    -0.231551737492E+04    0.27149E-04   -0.39110E-05  2624   0.322E-03    0.134E-02
RMM:   7    -0.231551737332E+04    0.15993E-05   -0.16620E-05  2605   0.209E-03
   2 F= -.23363713E+04 E0= -.23363713E+04  d E =-.643240E-10  mag=     6.0000
       N       E                     dE             d eps       ncg     rms          rms(c)
DAV:   1    -0.231551917161E+04   -0.17967E-02   -0.85765E+00  4480   0.130E+00    0.630E-01
RMM:   2    -0.231551375939E+04    0.54122E-02   -0.32014E-02  3871   0.728E-02    0.390E-01
RMM:   3    -0.231551498078E+04   -0.12214E-02   -0.11930E-02  5419   0.455E-02    0.739E-01
RMM:   4    -0.231551108637E+04    0.38944E-02   -0.62140E-03  4621   0.274E-02    0.155E-01
RMM:   5    -0.231551092239E+04    0.16398E-03   -0.10704E-03  3472   0.150E-02    0.963E-02
RMM:   6    -0.231551081787E+04    0.10452E-03   -0.13890E-04  3042   0.549E-03    0.264E-02
RMM:   7    -0.231551081150E+04    0.63658E-05   -0.75007E-05  3066   0.366E-03
   3 F= -.23363644E+04 E0= -.23363644E+04  d E =-.368312E-11  mag=     6.0000
       N       E                     dE             d eps       ncg     rms          rms(c)
DAV:   1    -0.231550563371E+04    0.51842E-02   -0.43142E+00  4800   0.936E-01    0.489E-01
RMM:   2    -0.231550239426E+04    0.32394E-02   -0.20344E-02  3993   0.570E-02    0.339E-01
RMM:   3    -0.231550246878E+04   -0.74517E-04   -0.67297E-03  5283   0.321E-02    0.491E-01
RMM:   4    -0.231550067229E+04    0.17965E-02   -0.38223E-03  4389   0.214E-02    0.205E-01
RMM:   5    -0.231550029881E+04    0.37348E-03   -0.90007E-04  3470   0.149E-02    0.748E-02
RMM:   6    -0.231550027123E+04    0.27578E-04   -0.11806E-04  2978   0.456E-03    0.224E-02
RMM:   7    -0.231550026441E+04    0.68246E-05   -0.23462E-05  2854   0.309E-03
   4 F= -.23363540E+04 E0= -.23363540E+04  d E =-.739191E-11  mag=     6.0000
       N       E                     dE             d eps       ncg     rms          rms(c)
DAV:   1    -0.231553940955E+04   -0.39138E-01   -0.86114E+00  4480   0.129E+00    0.701E-01
RMM:   2    -0.231553177344E+04    0.76361E-02   -0.38332E-02  4063   0.830E-02    0.457E-01
RMM:   3    -0.231553259237E+04   -0.81893E-03   -0.15987E-02  5575   0.492E-02    0.706E-01
RMM:   4    -0.231552839579E+04    0.41966E-02   -0.72715E-03  4920   0.308E-02    0.265E-01
RMM:   5    -0.231552789205E+04    0.50374E-03   -0.16585E-03  3810   0.167E-02    0.116E-01
RMM:   6    -0.231552780209E+04    0.89961E-04   -0.20909E-04  3168   0.579E-03    0.345E-02
RMM:   7    -0.231552778410E+04    0.17996E-04   -0.69219E-05  3199   0.420E-03    0.159E-02
RMM:   8    -0.231552778286E+04    0.12337E-05   -0.14879E-05  2953   0.335E-03
   5 F= -.23363816E+04 E0= -.23363816E+04  d E =-.361627E-10  mag=     6.0000
       N       E                     dE             d eps       ncg     rms          rms(c)
DAV:   1    -0.231548973727E+04    0.38047E-01   -0.43116E+00  4480   0.903E-01    0.434E-01
RMM:   2    -0.231548665908E+04    0.30782E-02   -0.17241E-02  3804   0.531E-02    0.264E-01
RMM:   3    -0.231548762551E+04   -0.96643E-03   -0.72101E-03  5195   0.338E-02    0.565E-01
RMM:   4    -0.231548529696E+04    0.23285E-02   -0.28648E-03  4518   0.189E-02    0.789E-02
RMM:   5    -0.231548525936E+04    0.37595E-04   -0.51904E-04  3200   0.931E-03    0.690E-02
RMM:   6    -0.231548520904E+04    0.50320E-04   -0.83276E-05  2779   0.432E-03    0.220E-02
RMM:   7    -0.231548520672E+04    0.23180E-05   -0.39842E-05  2964   0.303E-03
   6 F= -.23363393E+04 E0= -.23363393E+04  d E =-.323605E-10  mag=     6.0000
       N       E                     dE             d eps       ncg     rms          rms(c)
DAV:   1    -0.231555979081E+04   -0.74582E-01   -0.84148E+00  4480   0.126E+00    0.556E-01
RMM:   2    -0.231555583511E+04    0.39557E-02   -0.35048E-02  3923   0.756E-02    0.348E-01
RMM:   3    -0.231555570043E+04    0.13468E-03   -0.85903E-03  5265   0.387E-02    0.532E-01
RMM:   4    -0.231555322059E+04    0.24798E-02   -0.41876E-03  4508   0.228E-02    0.198E-01
RMM:   5    -0.231555304021E+04    0.18038E-03   -0.10389E-03  3547   0.149E-02    0.105E-01
RMM:   6    -0.231555295046E+04    0.89752E-04   -0.12830E-04  3108   0.536E-03    0.252E-02
RMM:   7    -0.231555295160E+04   -0.11421E-05   -0.33663E-05  2921   0.316E-03
   7 F= -.23364064E+04 E0= -.23364064E+04  d E =-.777220E-11  mag=     6.0000
       N       E                     dE             d eps       ncg     rms          rms(c)
DAV:   1    -0.231553561889E+04    0.17332E-01   -0.24585E+00  4480   0.685E-01    0.333E-01
RMM:   2    -0.231553456197E+04    0.10569E-02   -0.11743E-02  3714   0.424E-02    0.204E-01
RMM:   3    -0.231553474117E+04   -0.17920E-03   -0.31493E-03  4787   0.235E-02    0.341E-01
RMM:   4    -0.231553380548E+04    0.93569E-03   -0.13975E-03  3958   0.133E-02    0.965E-02
RMM:   5    -0.231553377611E+04    0.29362E-04   -0.31863E-04  3060   0.815E-03    0.629E-02
RMM:   6    -0.231553373953E+04    0.36584E-04   -0.50518E-05  2735   0.358E-03    0.160E-02
RMM:   7    -0.231553373951E+04    0.19325E-07   -0.11689E-05  2511   0.210E-03
   8 F= -.23363875E+04 E0= -.23363875E+04  d E =-.236518E-10  mag=     6.0000
       N       E                     dE             d eps       ncg     rms          rms(c)
DAV:   1    -0.231552742720E+04    0.63123E-02   -0.12212E+00  4480   0.409E-01    0.332E-01
RMM:   2    -0.231552728064E+04    0.14656E-03   -0.40985E-03  3513   0.238E-02    0.198E-01
RMM:   3    -0.231552772521E+04   -0.44458E-03   -0.16164E-03  4257   0.151E-02    0.258E-01
RMM:   4    -0.231552724767E+04    0.47754E-03   -0.59462E-04  3296   0.100E-02    0.494E-02
RMM:   5    -0.231552723902E+04    0.86552E-05   -0.12570E-04  2829   0.448E-03    0.419E-02
RMM:   6    -0.231552721842E+04    0.20601E-04   -0.37213E-05  2660   0.312E-03    0.843E-03
RMM:   7    -0.231552721846E+04   -0.44718E-07   -0.52078E-06  2399   0.181E-03
   9 F= -.23363810E+04 E0= -.23363810E+04  d E =-.176167E-10  mag=     6.0000
       N       E                     dE             d eps       ncg     rms          rms(c)
DAV:   1    -0.231553416251E+04   -0.69441E-02   -0.62754E-01  5040   0.295E-01    0.378E-01
RMM:   2    -0.231553206771E+04    0.20948E-02   -0.90524E-03  3814   0.314E-02    0.200E-01
RMM:   3    -0.231553215202E+04   -0.84313E-04   -0.24658E-03  4283   0.221E-02    0.279E-01
RMM:   4    -0.231553163328E+04    0.51874E-03   -0.90329E-04  3693   0.111E-02    0.838E-02
RMM:   5    -0.231553159620E+04    0.37083E-04   -0.21234E-04  3243   0.641E-03    0.582E-02
RMM:   6    -0.231553156804E+04    0.28157E-04   -0.85200E-05  2800   0.431E-03    0.244E-02
RMM:   7    -0.231553156163E+04    0.64176E-05   -0.72060E-06  2409   0.225E-03
  10 F= -.23363858E+04 E0= -.23363858E+04  d E =-.166701E-10  mag=     6.0000
       N       E                     dE             d eps       ncg     rms          rms(c)
DAV:   1    -0.231551516768E+04    0.16400E-01   -0.13014E+00  4880   0.444E-01    0.624E-01
RMM:   2    -0.231550834607E+04    0.68216E-02   -0.21849E-02  4150   0.487E-02    0.313E-01
RMM:   3    -0.231550817659E+04    0.16948E-03   -0.57178E-03  4450   0.354E-02    0.350E-01
RMM:   4    -0.231550747532E+04    0.70127E-03   -0.18574E-03  4322   0.160E-02    0.158E-01
RMM:   5    -0.231550725149E+04    0.22384E-03   -0.31240E-04  3516   0.784E-03    0.355E-02
RMM:   6    -0.231550725062E+04    0.86952E-06   -0.46469E-05  2892   0.485E-03
  11 F= -.23363606E+04 E0= -.23363606E+04  d E =-.156753E-10  mag=     6.0000
       N       E                     dE             d eps       ncg     rms          rms(c)
DAV:   1    -0.231553597075E+04   -0.28719E-01   -0.62524E-01  4640   0.284E-01    0.336E-01
RMM:   2    -0.231553452280E+04    0.14479E-02   -0.61613E-03  4102   0.269E-02    0.181E-01
RMM:   3    -0.231553461878E+04   -0.95978E-04   -0.16214E-03  4018   0.185E-02    0.185E-01
RMM:   4    -0.231553427262E+04    0.34616E-03   -0.67654E-04  3773   0.996E-03    0.632E-02
RMM:   5    -0.231553425635E+04    0.16277E-04   -0.87327E-05  3012   0.442E-03    0.320E-02
RMM:   6    -0.231553426320E+04   -0.68516E-05   -0.44356E-05  2649   0.338E-03
  12 F= -.23363883E+04 E0= -.23363883E+04  d E =-.227584E-10  mag=     6.0000
       N       E                     dE             d eps       ncg     rms          rms(c)
DAV:   1    -0.231552780196E+04    0.64544E-02   -0.11978E+00  4480   0.400E-01    0.343E-01
RMM:   2    -0.231552794794E+04   -0.14599E-03   -0.52802E-03  3726   0.273E-02    0.235E-01
RMM:   3    -0.231552840072E+04   -0.45278E-03   -0.24230E-03  4848   0.174E-02    0.308E-01
RMM:   4    -0.231552770835E+04    0.69237E-03   -0.98184E-04  3722   0.126E-02    0.127E-01
RMM:   5    -0.231552759450E+04    0.11385E-03   -0.24322E-04  2960   0.722E-03    0.497E-02
RMM:   6    -0.231552758108E+04    0.13420E-04   -0.47383E-05  2817   0.318E-03    0.150E-02
RMM:   7    -0.231552758005E+04    0.10272E-05   -0.78198E-06  2634   0.201E-03
  13 F= -.23363812E+04 E0= -.23363812E+04  d E =-.134453E-10  mag=     6.0000
       N       E                     dE             d eps       ncg     rms          rms(c)
DAV:   1    -0.231552370267E+04    0.38784E-02   -0.61658E-01  4960   0.328E-01    0.309E-01
RMM:   2    -0.231552305348E+04    0.64919E-03   -0.67082E-03  3793   0.292E-02    0.186E-01
RMM:   3    -0.231552327065E+04   -0.21717E-03   -0.19914E-03  4353   0.182E-02    0.246E-01
RMM:   4    -0.231552266643E+04    0.60423E-03   -0.72720E-04  3849   0.109E-02    0.686E-02
RMM:   5    -0.231552270508E+04   -0.38656E-04   -0.21052E-04  2818   0.557E-03    0.940E-02
RMM:   6    -0.231552263693E+04    0.68155E-04   -0.67708E-05  2782   0.386E-03    0.163E-02
RMM:   7    -0.231552263506E+04    0.18642E-05   -0.10825E-05  2414   0.220E-03
  14 F= -.23363767E+04 E0= -.23363767E+04  d E =-.171916E-10  mag=     6.0000
       N       E                     dE             d eps       ncg     rms          rms(c)
DAV:   1    -0.231552889333E+04   -0.62564E-02   -0.12786E+00  4960   0.439E-01    0.540E-01
RMM:   2    -0.231552473716E+04    0.41562E-02   -0.17849E-02  3968   0.437E-02    0.278E-01
RMM:   3    -0.231552416798E+04    0.56918E-03   -0.38877E-03  4261   0.310E-02    0.192E-01
RMM:   4    -0.231552408863E+04    0.79352E-04   -0.13465E-03  4277   0.134E-02    0.174E-01
RMM:   5    -0.231552393135E+04    0.15728E-03   -0.32550E-04  3320   0.778E-03    0.981E-02
RMM:   6    -0.231552383654E+04    0.94811E-04   -0.15613E-04  2956   0.593E-03    0.334E-02
RMM:   7    -0.231552383204E+04    0.45003E-05   -0.23476E-05  2652   0.293E-03
  15 F= -.23363774E+04 E0= -.23363774E+04  d E =-.140609E-10  mag=     6.0000
       N       E                     dE             d eps       ncg     rms          rms(c)
DAV:   1    -0.231553096152E+04   -0.71250E-02   -0.62271E-01  4480   0.307E-01    0.247E-01
RMM:   2    -0.231553087148E+04    0.90044E-04   -0.24176E-03  3451   0.178E-02    0.145E-01
RMM:   3    -0.231553083098E+04    0.40498E-04   -0.73460E-04  3719   0.968E-03    0.391E-02
RMM:   4    -0.231553082748E+04    0.34972E-05   -0.10745E-04  2631   0.577E-03    0.443E-02
RMM:   5    -0.231553080838E+04    0.19104E-04   -0.22284E-05  2418   0.261E-03    0.187E-02
RMM:   6    -0.231553080662E+04    0.17569E-05   -0.84973E-06  2176   0.171E-03
  16 F= -.23363842E+04 E0= -.23363842E+04  d E =-.169303E-10  mag=     6.0000
       N       E                     dE             d eps       ncg     rms          rms(c)
DAV:   1    -0.231552624891E+04    0.45595E-02   -0.12336E+00  4880   0.428E-01    0.436E-01
RMM:   2    -0.231552425209E+04    0.19968E-02   -0.10757E-02  3803   0.352E-02    0.234E-01
RMM:   3    -0.231552398374E+04    0.26835E-03   -0.23744E-03  4061   0.221E-02    0.145E-01
RMM:   4    -0.231552395693E+04    0.26814E-04   -0.80161E-04  3872   0.108E-02    0.143E-01
RMM:   5    -0.231552384777E+04    0.10916E-03   -0.21170E-04  3199   0.664E-03    0.790E-02
RMM:   6    -0.231552379338E+04    0.54386E-04   -0.97315E-05  2795   0.473E-03    0.272E-02
RMM:   7    -0.231552379059E+04    0.27947E-05   -0.13617E-05  2530   0.244E-03
  17 F= -.23363780E+04 E0= -.23363780E+04  d E =-.141930E-10  mag=     6.0000
       N       E                     dE             d eps       ncg     rms          rms(c)
DAV:   1    -0.231553173747E+04   -0.79441E-02   -0.61908E-01  4720   0.307E-01    0.309E-01
RMM:   2    -0.231553074165E+04    0.99581E-03   -0.50407E-03  3797   0.234E-02    0.165E-01
RMM:   3    -0.231553060091E+04    0.14074E-03   -0.11364E-03  3911   0.149E-02    0.867E-02
RMM:   4    -0.231553062670E+04   -0.25786E-04   -0.35923E-04  3261   0.723E-03    0.103E-01
RMM:   5    -0.231553055658E+04    0.70116E-04   -0.94493E-05  2885   0.486E-03    0.487E-02
RMM:   6    -0.231553053732E+04    0.19264E-04   -0.40099E-05  2532   0.323E-03    0.182E-02
RMM:   7    -0.231553053596E+04    0.13607E-05   -0.63138E-06  2274   0.181E-03
  18 F= -.23363845E+04 E0= -.23363845E+04  d E =-.105114E-10  mag=     6.0000
       N       E                     dE             d eps       ncg     rms          rms(c)
DAV:   1    -0.231552999101E+04    0.54630E-03   -0.12281E+00  4640   0.425E-01    0.347E-01
RMM:   2    -0.231552988578E+04    0.10524E-03   -0.65738E-03  3616   0.268E-02    0.201E-01
RMM:   3    -0.231552966864E+04    0.21714E-03   -0.12901E-03  4391   0.158E-02    0.720E-02
RMM:   4    -0.231552973977E+04   -0.71132E-04   -0.26773E-04  3101   0.672E-03    0.114E-01
RMM:   5    -0.231552964313E+04    0.96644E-04   -0.72921E-05  2810   0.448E-03    0.152E-02
RMM:   6    -0.231552964426E+04   -0.11333E-05   -0.22694E-05  2709   0.261E-03
  19 F= -.23363833E+04 E0= -.23363833E+04  d E =-.336938E-10  mag=     6.0000
       N       E                     dE             d eps       ncg     rms          rms(c)
DAV:   1    -0.231552853967E+04    0.11035E-02   -0.63301E-01  4720   0.319E-01    0.325E-01
RMM:   2    -0.231552738040E+04    0.11593E-02   -0.72435E-03  3741   0.291E-02    0.174E-01
RMM:   3    -0.231552731182E+04    0.68582E-04   -0.14611E-03  4036   0.186E-02    0.174E-01
RMM:   4    -0.231552715356E+04    0.15826E-03   -0.53064E-04  3468   0.844E-03    0.903E-02
RMM:   5    -0.231552710580E+04    0.47761E-04   -0.11054E-04  3065   0.498E-03    0.407E-02
RMM:   6    -0.231552709353E+04    0.12270E-04   -0.51279E-05  2606   0.372E-03    0.238E-02
RMM:   7    -0.231552708950E+04    0.40281E-05   -0.60375E-06  2240   0.201E-03
  20 F= -.23363806E+04 E0= -.23363806E+04  d E =-.122487E-10  mag=     6.0000
       N       E                     dE             d eps       ncg     rms          rms(c)
DAV:   1    -0.231552657156E+04    0.52197E-03   -0.12666E+00  4720   0.437E-01    0.519E-01
RMM:   2    -0.231552264605E+04    0.39255E-02   -0.16503E-02  3841   0.432E-02    0.272E-01
RMM:   3    -0.231552274010E+04   -0.94052E-04   -0.41329E-03  4294   0.318E-02    0.356E-01
RMM:   4    -0.231552193532E+04    0.80478E-03   -0.15802E-03  4142   0.143E-02    0.115E-01
RMM:   5    -0.231552183076E+04    0.10456E-03   -0.23309E-04  3390   0.676E-03    0.399E-02
RMM:   6    -0.231552182580E+04    0.49585E-05   -0.36617E-05  2708   0.419E-03
  21 F= -.23363759E+04 E0= -.23363759E+04  d E =-.184809E-10  mag=     6.0000
       N       E                     dE             d eps       ncg     rms          rms(c)
DAV:   1    -0.231553101230E+04   -0.91815E-02   -0.63431E-01  4720   0.310E-01    0.351E-01
RMM:   2    -0.231552928387E+04    0.17284E-02   -0.68935E-03  3836   0.279E-02    0.186E-01
RMM:   3    -0.231552938476E+04   -0.10090E-03   -0.20129E-03  4092   0.204E-02    0.240E-01
RMM:   4    -0.231552901904E+04    0.36573E-03   -0.70883E-04  3582   0.101E-02    0.846E-02
RMM:   5    -0.231552899982E+04    0.19223E-04   -0.17992E-04  2999   0.582E-03    0.614E-02
RMM:   6    -0.231552896706E+04    0.32752E-04   -0.77237E-05  2685   0.423E-03    0.230E-02
RMM:   7    -0.231552896286E+04    0.42069E-05   -0.67254E-06  2334   0.218E-03
  22 F= -.23363825E+04 E0= -.23363825E+04  d E =-.132104E-10  mag=     6.0000
       N       E                     dE             d eps       ncg     rms          rms(c)
DAV:   1    -0.231553128641E+04   -0.23193E-02   -0.12277E+00  4640   0.423E-01    0.351E-01
RMM:   2    -0.231553074747E+04    0.53893E-03   -0.46105E-03  3621   0.256E-02    0.205E-01
RMM:   3    -0.231553117939E+04   -0.43191E-03   -0.18476E-03  4167   0.175E-02    0.278E-01
RMM:   4    -0.231553065175E+04    0.52764E-03   -0.67613E-04  3602   0.100E-02    0.532E-02
RMM:   5    -0.231553063529E+04    0.16456E-04   -0.88780E-05  3005   0.440E-03    0.244E-02
RMM:   6    -0.231553063466E+04    0.63128E-06   -0.23476E-05  2505   0.290E-03
  23 F= -.23363847E+04 E0= -.23363847E+04  d E =-.157517E-10  mag=     6.0000
       N       E                     dE             d eps       ncg     rms          rms(c)
DAV:   1    -0.231552838261E+04    0.22527E-02   -0.63788E-01  4720   0.313E-01    0.343E-01
RMM:   2    -0.231552686025E+04    0.15224E-02   -0.60984E-03  3849   0.264E-02    0.179E-01
RMM:   3    -0.231552670043E+04    0.15983E-03   -0.13984E-03  3891   0.170E-02    0.115E-01
RMM:   4    -0.231552673799E+04   -0.37565E-04   -0.47562E-04  3259   0.779E-03    0.129E-01
RMM:   5    -0.231552661409E+04    0.12391E-03   -0.94863E-05  2894   0.509E-03    0.225E-02
RMM:   6    -0.231552661701E+04   -0.29285E-05   -0.36368E-05  2513   0.314E-03
  24 F= -.23363799E+04 E0= -.23363799E+04  d E =-.160688E-10  mag=     6.0000
       N       E                     dE             d eps       ncg     rms          rms(c)
DAV:   1    -0.231552914598E+04   -0.25319E-02   -0.12574E+00  4880   0.430E-01    0.480E-01
RMM:   2    -0.231552622812E+04    0.29179E-02   -0.12694E-02  3954   0.378E-02    0.250E-01
RMM:   3    -0.231552587199E+04    0.35613E-03   -0.27020E-03  4190   0.245E-02    0.164E-01
RMM:   4    -0.231552593429E+04   -0.62306E-04   -0.10741E-03  3792   0.111E-02    0.177E-01
RMM:   5    -0.231552571810E+04    0.21619E-03   -0.22466E-04  3189   0.709E-03    0.561E-02
RMM:   6    -0.231552569085E+04    0.27253E-04   -0.88830E-05  2753   0.466E-03    0.280E-02
RMM:   7    -0.231552568566E+04    0.51879E-05   -0.11608E-05  2334   0.243E-03
  25 F= -.23363800E+04 E0= -.23363800E+04  d E =-.132537E-10  mag=     6.0000
       N       E                     dE             d eps       ncg     rms          rms(c)
DAV:   1    -0.231553578819E+04   -0.10097E-01   -0.58175E-01  4560   0.327E-01    0.263E-01
RMM:   2    -0.231553527019E+04    0.51800E-03   -0.41356E-03  3778   0.244E-02    0.145E-01
RMM:   3    -0.231553530458E+04   -0.34389E-04   -0.95502E-04  3989   0.147E-02    0.176E-01
RMM:   4    -0.231553511469E+04    0.18989E-03   -0.46706E-04  3314   0.799E-03    0.730E-02
RMM:   5    -0.231553510147E+04    0.13217E-04   -0.10033E-04  2821   0.485E-03    0.497E-02
RMM:   6    -0.231553507621E+04    0.25260E-04   -0.45382E-05  2532   0.331E-03    0.148E-02
RMM:   7    -0.231553507577E+04    0.44289E-06   -0.53284E-06  2251   0.177E-03
  26 F= -.23363891E+04 E0= -.23363891E+04  d E =-.104585E-10  mag=     6.0000
       N       E                     dE             d eps       ncg     rms          rms(c)
DAV:   1    -0.231552823348E+04    0.68427E-02   -0.10765E+00  4480   0.381E-01    0.234E-01
RMM:   2    -0.231552870273E+04   -0.46925E-03   -0.29944E-03  3651   0.220E-02    0.143E-01
RMM:   3    -0.231552872094E+04   -0.18207E-04   -0.52622E-04  3645   0.121E-02    0.147E-01
RMM:   4    -0.231552869104E+04    0.29896E-04   -0.44498E-04  3125   0.755E-03    0.119E-01
RMM:   5    -0.231552861605E+04    0.74994E-04   -0.95050E-05  2988   0.533E-03    0.211E-02
RMM:   6    -0.231552861552E+04    0.53155E-06   -0.20317E-05  2650   0.285E-03
  27 F= -.23363822E+04 E0= -.23363822E+04  d E =-.256380E-10  mag=     6.0000
       N       E                     dE             d eps       ncg     rms          rms(c)
DAV:   1    -0.231553232995E+04   -0.37139E-02   -0.54221E-01  4480   0.281E-01    0.197E-01
RMM:   2    -0.231553305203E+04   -0.72208E-03   -0.45611E-03  4072   0.268E-02    0.274E-01
RMM:   3    -0.231553232304E+04    0.72899E-03   -0.84117E-04  3553   0.139E-02    0.104E-01
RMM:   4    -0.231553243141E+04   -0.10837E-03   -0.44895E-04  3314   0.774E-03    0.145E-01
RMM:   5    -0.231553228454E+04    0.14687E-03   -0.21664E-04  3066   0.645E-03    0.471E-02
RMM:   6    -0.231553227517E+04    0.93727E-05   -0.32446E-05  2787   0.327E-03
  28 F= -.23363856E+04 E0= -.23363856E+04  d E =-.362489E-10  mag=     6.0000
       N       E                     dE             d eps       ncg     rms          rms(c)
DAV:   1    -0.231552373669E+04    0.85479E-02   -0.10787E+00  4480   0.391E-01    0.326E-01
RMM:   2    -0.231552612423E+04   -0.23875E-02   -0.13879E-02  4633   0.463E-02    0.540E-01
RMM:   3    -0.231552311554E+04    0.30087E-02   -0.25645E-03  4381   0.237E-02    0.154E-01
RMM:   4    -0.231552342584E+04   -0.31029E-03   -0.12395E-03  3908   0.123E-02    0.244E-01
RMM:   5    -0.231552299135E+04    0.43449E-03   -0.58880E-04  3516   0.978E-03    0.711E-02
RMM:   6    -0.231552295731E+04    0.34042E-04   -0.85992E-05  3012   0.462E-03    0.210E-02
RMM:   7    -0.231552295236E+04    0.49457E-05   -0.14741E-05  2753   0.256E-03
  29 F= -.23363771E+04 E0= -.23363771E+04  d E =-.669112E-11  mag=     6.0000
       N       E                     dE             d eps       ncg     rms          rms(c)
DAV:   1    -0.231554832447E+04   -0.25367E-01   -0.55632E-01  4480   0.286E-01    0.224E-01
RMM:   2    -0.231554851143E+04   -0.18696E-03   -0.48550E-03  3982   0.263E-02    0.234E-01
RMM:   3    -0.231554812831E+04    0.38312E-03   -0.11909E-03  3719   0.146E-02    0.124E-01
RMM:   4    -0.231554811864E+04    0.96647E-05   -0.45920E-04  3803   0.823E-03    0.137E-01
RMM:   5    -0.231554801358E+04    0.10506E-03   -0.20680E-04  3073   0.589E-03    0.511E-02
RMM:   6    -0.231554799727E+04    0.16309E-04   -0.25472E-05  2782   0.322E-03    0.113E-02
RMM:   7    -0.231554799746E+04   -0.18951E-06   -0.94989E-06  2700   0.205E-03
  30 F= -.23364022E+04 E0= -.23364022E+04  d E =-.631988E-11  mag=     6.0000
       N       E                     dE             d eps       ncg     rms          rms(c)
DAV:   1    -0.231551581486E+04    0.32182E-01   -0.10807E+00  4480   0.405E-01    0.348E-01
RMM:   2    -0.231551491964E+04    0.89523E-03   -0.97542E-03  4385   0.354E-02    0.206E-01
RMM:   3    -0.231551542261E+04   -0.50297E-03   -0.29731E-03  4905   0.226E-02    0.365E-01
RMM:   4    -0.231551432019E+04    0.11024E-02   -0.11556E-03  3876   0.125E-02    0.101E-01
RMM:   5    -0.231551434758E+04   -0.27384E-04   -0.54775E-04  3228   0.853E-03    0.118E-01
RMM:   6    -0.231551423604E+04    0.11154E-03   -0.13244E-04  3096   0.553E-03    0.210E-02
RMM:   7    -0.231551423315E+04    0.28866E-05   -0.23818E-05  2948   0.321E-03
  31 F= -.23363676E+04 E0= -.23363676E+04  d E =-.560226E-10  mag=     6.0000
