       N       E                     dE             d eps       ncg     rms          rms(c)
DAV:   1     0.120850031941E+05    0.12085E+05   -0.83179E+05  4640   0.140E+03
DAV:   2    -0.129942878342E+04   -0.13384E+05   -0.12879E+05  4960   0.318E+02
DAV:   3    -0.249489318940E+04   -0.11955E+04   -0.11857E+04  5440   0.102E+02
DAV:   4    -0.252012608777E+04   -0.25233E+02   -0.25088E+02  5680   0.177E+01
DAV:   5    -0.252080926991E+04   -0.68318E+00   -0.68203E+00  5840   0.253E+00    0.170E+02
RMM:   6    -0.147709752275E+04    0.10437E+04   -0.19075E+03  4499   0.376E+01    0.725E+01
RMM:   7    -0.164789685436E+04   -0.17080E+03   -0.26931E+02  5054   0.133E+01    0.486E+01
RMM:   8    -0.170636759853E+04   -0.58471E+02   -0.40245E+01  5068   0.688E+00    0.379E+01
RMM:   9    -0.182350497769E+04   -0.11714E+03   -0.61468E+01  5095   0.736E+00    0.373E+01
RMM:  10    -0.191809991129E+04   -0.94595E+02   -0.45808E+01  5432   0.612E+00    0.224E+01
RMM:  11    -0.204418760653E+04   -0.12609E+03   -0.57440E+01  4802   0.584E+00    0.200E+01
RMM:  12    -0.211872291768E+04   -0.74535E+02   -0.34379E+01  5069   0.445E+00    0.125E+01
RMM:  13    -0.224549832175E+04   -0.12678E+03   -0.10655E+02  4544   0.723E+00    0.167E+01
RMM:  14    -0.228578954443E+04   -0.40291E+02   -0.33304E+01  4555   0.460E+00    0.118E+01
RMM:  15    -0.230601503514E+04   -0.20225E+02   -0.21015E+01  4644   0.304E+00    0.884E+00
RMM:  16    -0.231233733123E+04   -0.63223E+01   -0.61472E+00  4879   0.207E+00    0.260E+00
RMM:  17    -0.231427023553E+04   -0.19329E+01   -0.17883E+00  5478   0.823E-01    0.382E+00
RMM:  18    -0.231539355786E+04   -0.11233E+01   -0.56209E-01  4849   0.435E-01    0.294E+00
RMM:  19    -0.231587702501E+04   -0.48347E+00   -0.29310E-01  4815   0.292E-01    0.325E+00
RMM:  20    -0.231596666007E+04   -0.89635E-01   -0.49576E-02  5018   0.123E-01    0.310E+00
RMM:  21    -0.231620040781E+04   -0.23375E+00   -0.11036E-01  4748   0.166E-01    0.216E+00
RMM:  22    -0.231648574532E+04   -0.28534E+00   -0.24230E-01  4623   0.259E-01    0.806E-01
RMM:  23    -0.231657280742E+04   -0.87062E-01   -0.50132E-02  4734   0.162E-01    0.529E-01
RMM:  24    -0.231658935410E+04   -0.16547E-01   -0.15799E-02  4845   0.872E-02    0.251E-01
RMM:  25    -0.231660250396E+04   -0.13150E-01   -0.70523E-03  4679   0.612E-02    0.155E-01
RMM:  26    -0.231661352830E+04   -0.11024E-01   -0.29786E-03  4557   0.428E-02    0.131E-01
RMM:  27    -0.231662465930E+04   -0.11131E-01   -0.36847E-03  4489   0.414E-02    0.765E-02
RMM:  28    -0.231663029167E+04   -0.56324E-02   -0.15554E-03  4559   0.319E-02    0.503E-02
RMM:  29    -0.231663425892E+04   -0.39673E-02   -0.10823E-03  4165   0.233E-02    0.301E-02
RMM:  30    -0.231663639356E+04   -0.21346E-02   -0.69010E-04  4171   0.214E-02    0.163E-02
RMM:  31    -0.231663705365E+04   -0.66008E-03   -0.28307E-04  4166   0.141E-02    0.970E-03
RMM:  32    -0.231663724685E+04   -0.19321E-03   -0.75274E-05  3723   0.816E-03    0.873E-03
RMM:  33    -0.231663736406E+04   -0.11721E-03   -0.33320E-05  3359   0.562E-03    0.604E-03
RMM:  34    -0.231663742664E+04   -0.62577E-04   -0.22137E-05  3175   0.465E-03    0.204E-03
RMM:  35    -0.231663744308E+04   -0.16437E-04   -0.84856E-06  2943   0.337E-03    0.152E-03
RMM:  36    -0.231663745166E+04   -0.85819E-05   -0.44838E-06  2550   0.228E-03
   1 F= -.23370644E+04 E0= -.23370644E+04  d E =-.460022E-09  mag=     4.0001
       N       E                     dE             d eps       ncg     rms          rms(c)
DAV:   1    -0.231664377856E+04   -0.63355E-02   -0.21142E+00  4320   0.785E-01    0.294E-01
RMM:   2    -0.231664341528E+04    0.36327E-03   -0.99262E-03  3749   0.448E-02    0.201E-01
RMM:   3    -0.231664388048E+04   -0.46519E-03   -0.24977E-03  5069   0.199E-02    0.364E-01
RMM:   4    -0.231664282198E+04    0.10585E-02   -0.16374E-03  4276   0.154E-02    0.733E-02
RMM:   5    -0.231664279971E+04    0.22274E-04   -0.16609E-04  3203   0.733E-03    0.366E-02
RMM:   6    -0.231664279828E+04    0.14231E-05   -0.34844E-05  2957   0.322E-03
   2 F= -.23370698E+04 E0= -.23370698E+04  d E =-.453203E-09  mag=     4.0000
       N       E                     dE             d eps       ncg     rms          rms(c)
DAV:   1    -0.231660268922E+04    0.40110E-01   -0.83853E+00  4480   0.154E+00    0.581E-01
RMM:   2    -0.231660077167E+04    0.19175E-02   -0.34688E-02  3974   0.894E-02    0.408E-01
RMM:   3    -0.231660236041E+04   -0.15887E-02   -0.92674E-03  5592   0.421E-02    0.707E-01
RMM:   4    -0.231659820889E+04    0.41515E-02   -0.64567E-03  4898   0.307E-02    0.144E-01
RMM:   5    -0.231659810411E+04    0.10478E-03   -0.66976E-04  3846   0.145E-02    0.691E-02
RMM:   6    -0.231659809261E+04    0.11500E-04   -0.12094E-04  3593   0.539E-03    0.466E-02
RMM:   7    -0.231659808847E+04    0.41342E-05   -0.39825E-05  2942   0.398E-03
   3 F= -.23370251E+04 E0= -.23370251E+04  d E =-.417532E-09  mag=     4.0000
       N       E                     dE             d eps       ncg     rms          rms(c)
DAV:   1    -0.231663423602E+04   -0.36143E-01   -0.43141E+00  4480   0.112E+00    0.437E-01
RMM:   2    -0.231663208844E+04    0.21476E-02   -0.14697E-02  3811   0.576E-02    0.249E-01
RMM:   3    -0.231663191209E+04    0.17635E-03   -0.62519E-03  4956   0.325E-02    0.336E-01
RMM:   4    -0.231663097475E+04    0.93734E-03   -0.11644E-03  4300   0.163E-02    0.752E-02
RMM:   5    -0.231663095025E+04    0.24500E-04   -0.20285E-04  3415   0.610E-03    0.396E-02
RMM:   6    -0.231663094084E+04    0.94141E-05   -0.50497E-05  3152   0.374E-03
   4 F= -.23370578E+04 E0= -.23370578E+04  d E =-.884276E-09  mag=     4.0000
       N       E                     dE             d eps       ncg     rms          rms(c)
DAV:   1    -0.231660886468E+04    0.22086E-01   -0.86904E+00  4480   0.159E+00    0.639E-01
RMM:   2    -0.231660525591E+04    0.36088E-02   -0.32443E-02  4013   0.870E-02    0.503E-01
RMM:   3    -0.231660732627E+04   -0.20704E-02   -0.11226E-02  5705   0.424E-02    0.798E-01
RMM:   4    -0.231660187303E+04    0.54532E-02   -0.73794E-03  4566   0.334E-02    0.755E-02
RMM:   5    -0.231660184200E+04    0.31025E-04   -0.83004E-04  3525   0.191E-02    0.501E-02
RMM:   6    -0.231660180093E+04    0.41071E-04   -0.71653E-05  3323   0.426E-03    0.215E-02
RMM:   7    -0.231660179758E+04    0.33565E-05   -0.26206E-05  2968   0.351E-03
   5 F= -.23370289E+04 E0= -.23370289E+04  d E =-.237371E-09  mag=     4.0000
       N       E                     dE             d eps       ncg     rms          rms(c)
DAV:   1    -0.231667926786E+04   -0.77467E-01   -0.42320E+00  4480   0.107E+00    0.439E-01
RMM:   2    -0.231667685416E+04    0.24137E-02   -0.17873E-02  3951   0.642E-02    0.258E-01
RMM:   3    -0.231667728793E+04   -0.43377E-03   -0.58680E-03  5128   0.310E-02    0.462E-01
RMM:   4    -0.231667555348E+04    0.17345E-02   -0.22310E-03  4773   0.197E-02    0.864E-02
RMM:   5    -0.231667549340E+04    0.60080E-04   -0.33249E-04  3612   0.752E-03    0.288E-02
RMM:   6    -0.231667548243E+04    0.10967E-04   -0.47782E-05  2832   0.344E-03    0.170E-02
RMM:   7    -0.231667548213E+04    0.29645E-06   -0.14972E-05  2841   0.259E-03
   6 F= -.23371026E+04 E0= -.23371026E+04  d E =-.775164E-09  mag=     4.0000
       N       E                     dE             d eps       ncg     rms          rms(c)
DAV:   1    -0.231658150817E+04    0.93974E-01   -0.83237E+00  4560   0.154E+00    0.668E-01
RMM:   2    -0.231657542555E+04    0.60826E-02   -0.41842E-02  4128   0.896E-02    0.409E-01
RMM:   3    -0.231657731669E+04   -0.18911E-02   -0.11591E-02  5349   0.511E-02    0.745E-01
RMM:   4    -0.231657268410E+04    0.46326E-02   -0.58056E-03  5089   0.289E-02    0.173E-01
RMM:   5    -0.231657250982E+04    0.17428E-03   -0.79325E-04  4188   0.121E-02    0.510E-02
RMM:   6    -0.231657250473E+04    0.50973E-05   -0.84538E-05  3067   0.552E-03
   7 F= -.23369994E+04 E0= -.23369994E+04  d E =-.289572E-09  mag=     4.0000
       N       E                     dE             d eps       ncg     rms          rms(c)
DAV:   1    -0.231659776827E+04   -0.25258E-01   -0.43750E+00  4480   0.106E+00    0.504E-01
RMM:   2    -0.231659611253E+04    0.16557E-02   -0.26888E-02  4108   0.720E-02    0.436E-01
RMM:   3    -0.231659625297E+04   -0.14043E-03   -0.65626E-03  5265   0.357E-02    0.525E-01
RMM:   4    -0.231659383396E+04    0.24190E-02   -0.31396E-03  4809   0.213E-02    0.159E-01
RMM:   5    -0.231659368731E+04    0.14665E-03   -0.73882E-04  4276   0.118E-02    0.569E-02
RMM:   6    -0.231659366801E+04    0.19301E-04   -0.89114E-05  3094   0.611E-03    0.219E-02
RMM:   7    -0.231659366603E+04    0.19727E-05   -0.19441E-05  2809   0.271E-03
   8 F= -.23370206E+04 E0= -.23370206E+04  d E =-.424889E-09  mag=     4.0000
       N       E                     dE             d eps       ncg     rms          rms(c)
DAV:   1    -0.231665255054E+04   -0.58883E-01   -0.83833E+00  4480   0.132E+00    0.628E-01
RMM:   2    -0.231665367680E+04   -0.11263E-02   -0.43055E-02  4152   0.903E-02    0.537E-01
RMM:   3    -0.231665394236E+04   -0.26557E-03   -0.94217E-03  5217   0.438E-02    0.638E-01
RMM:   4    -0.231665045608E+04    0.34863E-02   -0.48771E-03  5182   0.266E-02    0.195E-01
RMM:   5    -0.231665039705E+04    0.59027E-04   -0.95225E-04  4709   0.123E-02    0.775E-02
RMM:   6    -0.231665034837E+04    0.48685E-04   -0.10680E-04  3103   0.566E-03    0.270E-02
RMM:   7    -0.231665034792E+04    0.44785E-06   -0.34280E-05  2987   0.321E-03
   9 F= -.23370774E+04 E0= -.23370774E+04  d E =-.511813E-09  mag=     4.0000
       N       E                     dE             d eps       ncg     rms          rms(c)
DAV:   1    -0.231661465401E+04    0.35694E-01   -0.41452E+00  4480   0.971E-01    0.446E-01
RMM:   2    -0.231661595381E+04   -0.12998E-02   -0.17630E-02  4181   0.601E-02    0.505E-01
RMM:   3    -0.231661495760E+04    0.99621E-03   -0.45167E-03  5087   0.290E-02    0.399E-01
RMM:   4    -0.231661385802E+04    0.10996E-02   -0.19349E-03  4696   0.178E-02    0.145E-01
RMM:   5    -0.231661387218E+04   -0.14160E-04   -0.66608E-04  4155   0.107E-02    0.743E-02
RMM:   6    -0.231661386451E+04    0.76706E-05   -0.12509E-04  3110   0.720E-03    0.361E-02
RMM:   7    -0.231661386922E+04   -0.47129E-05   -0.48970E-05  3025   0.354E-03
  10 F= -.23370411E+04 E0= -.23370411E+04  d E =-.126135E-09  mag=     4.0000
       N       E                     dE             d eps       ncg     rms          rms(c)
DAV:   1    -0.231665093044E+04   -0.37066E-01   -0.77092E+00  4480   0.116E+00    0.509E-01
RMM:   2    -0.231665186486E+04   -0.93443E-03   -0.19805E-02  4168   0.620E-02    0.500E-01
RMM:   3    -0.231665198980E+04   -0.12494E-03   -0.58000E-03  5336   0.299E-02    0.524E-01
RMM:   4    -0.231665046582E+04    0.15240E-02   -0.24685E-03  4363   0.208E-02    0.199E-01
RMM:   5    -0.231665061926E+04   -0.15344E-03   -0.79087E-04  3773   0.151E-02    0.139E-01
RMM:   6    -0.231665071639E+04   -0.97134E-04   -0.74372E-04  3749   0.114E-02    0.628E-02
RMM:   7    -0.231665072561E+04   -0.92161E-05   -0.16079E-04  3114   0.693E-03    0.222E-02
RMM:   8    -0.231665072318E+04    0.24206E-05   -0.27992E-05  2876   0.331E-03
  11 F= -.23370775E+04 E0= -.23370775E+04  d E =-.172818E-08  mag=     4.0000
       N       E                     dE             d eps       ncg     rms          rms(c)
DAV:   1    -0.231660099223E+04    0.49733E-01   -0.39356E+00  4480   0.933E-01    0.461E-01
RMM:   2    -0.231660203344E+04   -0.10412E-02   -0.19007E-02  4090   0.589E-02    0.332E-01
RMM:   3    -0.231660259591E+04   -0.56247E-03   -0.44257E-03  4943   0.320E-02    0.377E-01
RMM:   4    -0.231660220242E+04    0.39349E-03   -0.19394E-03  4634   0.171E-02    0.291E-01
RMM:   5    -0.231660197539E+04    0.22703E-03   -0.99501E-04  4497   0.129E-02    0.134E-01
RMM:   6    -0.231660199730E+04   -0.21913E-04   -0.41670E-04  3504   0.934E-03    0.478E-02
RMM:   7    -0.231660200413E+04   -0.68242E-05   -0.76486E-05  3038   0.467E-03
  12 F= -.23370297E+04 E0= -.23370297E+04  d E =-.151446E-09  mag=     4.0000
       N       E                     dE             d eps       ncg     rms          rms(c)
DAV:   1    -0.231666549947E+04   -0.63502E-01   -0.79290E+00  4480   0.131E+00    0.689E-01
RMM:   2    -0.231666944644E+04   -0.39470E-02   -0.44038E-02  4199   0.853E-02    0.684E-01
RMM:   3    -0.231666797294E+04    0.14735E-02   -0.11154E-02  5427   0.408E-02    0.605E-01
RMM:   4    -0.231666564868E+04    0.23243E-02   -0.47669E-03  4933   0.294E-02    0.233E-01
RMM:   5    -0.231666574258E+04   -0.93901E-04   -0.17301E-03  4384   0.180E-02    0.153E-01
RMM:   6    -0.231666586737E+04   -0.12479E-03   -0.56856E-04  3938   0.120E-02    0.112E-01
RMM:   7    -0.231666589190E+04   -0.24533E-04   -0.27205E-04  3243   0.747E-03    0.415E-02
RMM:   8    -0.231666590927E+04   -0.17372E-04   -0.77150E-05  3017   0.528E-03    0.186E-02
RMM:   9    -0.231666591755E+04   -0.82752E-05   -0.31682E-05  2908   0.334E-03
  13 F= -.23370923E+04 E0= -.23370923E+04  d E =-.900676E-09  mag=     4.0000
       N       E                     dE             d eps       ncg     rms          rms(c)
DAV:   1    -0.231661561596E+04    0.50293E-01   -0.23071E+00  4480   0.739E-01    0.409E-01
RMM:   2    -0.231661626046E+04   -0.64451E-03   -0.14211E-02  3966   0.493E-02    0.334E-01
RMM:   3    -0.231661722505E+04   -0.96458E-03   -0.46817E-03  5022   0.270E-02    0.475E-01
RMM:   4    -0.231661557124E+04    0.16538E-02   -0.17651E-03  4383   0.183E-02    0.142E-01
RMM:   5    -0.231661562054E+04   -0.49298E-04   -0.65617E-04  3994   0.107E-02    0.906E-02
RMM:   6    -0.231661564548E+04   -0.24947E-04   -0.18413E-04  3353   0.749E-03    0.532E-02
RMM:   7    -0.231661564794E+04   -0.24570E-05   -0.59356E-05  2958   0.430E-03
  14 F= -.23370424E+04 E0= -.23370424E+04  d E =-.349453E-09  mag=     4.0000
       N       E                     dE             d eps       ncg     rms          rms(c)
DAV:   1    -0.231665286133E+04   -0.37216E-01   -0.12125E+00  4720   0.513E-01    0.417E-01
RMM:   2    -0.231665127411E+04    0.15872E-02   -0.93895E-03  3940   0.398E-02    0.229E-01
RMM:   3    -0.231665104161E+04    0.23250E-03   -0.24435E-03  4541   0.240E-02    0.146E-01
RMM:   4    -0.231665103112E+04    0.10485E-04   -0.60827E-04  3978   0.104E-02    0.145E-01
RMM:   5    -0.231665085669E+04    0.17444E-03   -0.15897E-04  3450   0.634E-03    0.210E-02
RMM:   6    -0.231665086033E+04   -0.36426E-05   -0.28578E-05  2751   0.375E-03
  15 F= -.23370781E+04 E0= -.23370781E+04  d E =-.580697E-09  mag=     4.0000
       N       E                     dE             d eps       ncg     rms          rms(c)
DAV:   1    -0.231663425274E+04    0.16604E-01   -0.60669E-01  4720   0.364E-01    0.260E-01
RMM:   2    -0.231663380947E+04    0.44328E-03   -0.28739E-03  3675   0.227E-02    0.145E-01
RMM:   3    -0.231663381594E+04   -0.64752E-05   -0.83844E-04  3933   0.136E-02    0.933E-02
RMM:   4    -0.231663380439E+04    0.11547E-04   -0.23996E-04  3339   0.683E-03    0.861E-02
RMM:   5    -0.231663374591E+04    0.58488E-04   -0.46404E-05  2811   0.398E-03    0.118E-02
RMM:   6    -0.231663374672E+04   -0.81360E-06   -0.10145E-05  2337   0.237E-03
  16 F= -.23370607E+04 E0= -.23370607E+04  d E =-.532404E-09  mag=     4.0000
       N       E                     dE             d eps       ncg     rms          rms(c)
DAV:   1    -0.231663809669E+04   -0.43508E-02   -0.12097E+00  4720   0.502E-01    0.312E-01
RMM:   2    -0.231663819436E+04   -0.97673E-04   -0.29997E-03  3399   0.272E-02    0.187E-01
RMM:   3    -0.231663829113E+04   -0.96774E-04   -0.95104E-04  3878   0.131E-02    0.815E-02
RMM:   4    -0.231663824379E+04    0.47347E-04   -0.13461E-04  2919   0.804E-03    0.413E-02
RMM:   5    -0.231663823009E+04    0.13696E-04   -0.16050E-05  2518   0.250E-03    0.101E-02
RMM:   6    -0.231663822791E+04    0.21764E-05   -0.89512E-06  2345   0.188E-03
  17 F= -.23370653E+04 E0= -.23370653E+04  d E =-.406327E-09  mag=     4.0000
       N       E                     dE             d eps       ncg     rms          rms(c)
DAV:   1    -0.231662940618E+04    0.88239E-02   -0.62599E-01  5040   0.376E-01    0.347E-01
RMM:   2    -0.231662791226E+04    0.14939E-02   -0.56908E-03  3766   0.327E-02    0.188E-01
RMM:   3    -0.231662825414E+04   -0.34188E-03   -0.23001E-03  4477   0.218E-02    0.270E-01
RMM:   4    -0.231662768816E+04    0.56597E-03   -0.65723E-04  4109   0.109E-02    0.656E-02
RMM:   5    -0.231662764227E+04    0.45890E-04   -0.17317E-04  3377   0.557E-03    0.210E-02
RMM:   6    -0.231662764299E+04   -0.71860E-06   -0.22798E-05  2604   0.362E-03
  18 F= -.23370545E+04 E0= -.23370545E+04  d E =-.522074E-09  mag=     4.0000
       N       E                     dE             d eps       ncg     rms          rms(c)
DAV:   1    -0.231663178077E+04   -0.41385E-02   -0.12649E+00  5120   0.533E-01    0.591E-01
RMM:   2    -0.231662609111E+04    0.56897E-02   -0.19821E-02  4100   0.588E-02    0.307E-01
RMM:   3    -0.231662704949E+04   -0.95839E-03   -0.66097E-03  4799   0.426E-02    0.486E-01
RMM:   4    -0.231662527279E+04    0.17767E-02   -0.24645E-03  4760   0.202E-02    0.119E-01
RMM:   5    -0.231662511894E+04    0.15385E-03   -0.62517E-04  4020   0.977E-03    0.409E-02
RMM:   6    -0.231662510709E+04    0.11849E-04   -0.66950E-05  2977   0.573E-03    0.174E-02
RMM:   7    -0.231662510413E+04    0.29590E-05   -0.15137E-05  2604   0.228E-03
  19 F= -.23370522E+04 E0= -.23370522E+04  d E =-.405224E-09  mag=     4.0000
       N       E                     dE             d eps       ncg     rms          rms(c)
DAV:   1    -0.231663024941E+04   -0.51423E-02   -0.61282E-01  5200   0.414E-01    0.342E-01
RMM:   2    -0.231662949497E+04    0.75444E-03   -0.42963E-03  3570   0.338E-02    0.204E-01
RMM:   3    -0.231663013880E+04   -0.64383E-03   -0.22103E-03  4449   0.190E-02    0.357E-01
RMM:   4    -0.231662908641E+04    0.10524E-02   -0.80050E-04  3916   0.137E-02    0.225E-02
RMM:   5    -0.231662907521E+04    0.11194E-04   -0.10530E-04  2963   0.375E-03    0.130E-02
RMM:   6    -0.231662907334E+04    0.18724E-05   -0.98320E-06  2390   0.238E-03
  20 F= -.23370563E+04 E0= -.23370563E+04  d E =-.557567E-09  mag=     4.0000
       N       E                     dE             d eps       ncg     rms          rms(c)
DAV:   1    -0.231663579389E+04   -0.67187E-02   -0.12657E+00  4800   0.558E-01    0.482E-01
RMM:   2    -0.231663306463E+04    0.27293E-02   -0.11040E-02  3836   0.450E-02    0.256E-01
RMM:   3    -0.231663263476E+04    0.42987E-03   -0.39215E-03  4457   0.259E-02    0.805E-02
RMM:   4    -0.231663249259E+04    0.14217E-03   -0.26629E-04  3890   0.988E-03    0.384E-02
RMM:   5    -0.231663249629E+04   -0.37030E-05   -0.89945E-05  3205   0.437E-03
  21 F= -.23370592E+04 E0= -.23370592E+04  d E =-.448028E-09  mag=     4.0000
       N       E                     dE             d eps       ncg     rms          rms(c)
DAV:   1    -0.231662868744E+04    0.38052E-02   -0.65121E-01  5040   0.404E-01    0.446E-01
RMM:   2    -0.231662547239E+04    0.32150E-02   -0.12313E-02  3957   0.443E-02    0.237E-01
RMM:   3    -0.231662626926E+04   -0.79687E-03   -0.45056E-03  4914   0.302E-02    0.432E-01
RMM:   4    -0.231662479251E+04    0.14768E-02   -0.14619E-03  4584   0.158E-02    0.871E-02
RMM:   5    -0.231662471105E+04    0.81452E-04   -0.36134E-04  3782   0.751E-03    0.368E-02
RMM:   6    -0.231662469656E+04    0.14495E-04   -0.53996E-05  3075   0.449E-03    0.130E-02
RMM:   7    -0.231662469411E+04    0.24479E-05   -0.96916E-06  2543   0.225E-03
  22 F= -.23370521E+04 E0= -.23370521E+04  d E =-.452499E-09  mag=     4.0000
       N       E                     dE             d eps       ncg     rms          rms(c)
DAV:   1    -0.231663758739E+04   -0.12891E-01   -0.12772E+00  4960   0.556E-01    0.528E-01
RMM:   2    -0.231663359858E+04    0.39888E-02   -0.15751E-02  4009   0.533E-02    0.277E-01
RMM:   3    -0.231663391642E+04   -0.31785E-03   -0.53376E-03  4841   0.356E-02    0.349E-01
RMM:   4    -0.231663302986E+04    0.88657E-03   -0.14486E-03  4634   0.157E-02    0.128E-01
RMM:   5    -0.231663287849E+04    0.15136E-03   -0.39128E-04  4003   0.873E-03    0.380E-02
RMM:   6    -0.231663287014E+04    0.83549E-05   -0.71080E-05  3360   0.501E-03
  23 F= -.23370595E+04 E0= -.23370595E+04  d E =-.471706E-09  mag=     4.0000
       N       E                     dE             d eps       ncg     rms          rms(c)
DAV:   1    -0.231663100173E+04    0.18768E-02   -0.63471E-01  4800   0.394E-01    0.313E-01
RMM:   2    -0.231663004957E+04    0.95216E-03   -0.52026E-03  3774   0.303E-02    0.177E-01
RMM:   3    -0.231663064260E+04   -0.59303E-03   -0.20456E-03  4680   0.196E-02    0.322E-01
RMM:   4    -0.231662982946E+04    0.81314E-03   -0.70878E-04  4137   0.113E-02    0.553E-02
RMM:   5    -0.231662981198E+04    0.17481E-04   -0.15913E-04  3418   0.533E-03    0.251E-02
RMM:   6    -0.231662980649E+04    0.54859E-05   -0.20038E-05  2710   0.348E-03
  24 F= -.23370570E+04 E0= -.23370570E+04  d E =-.398102E-09  mag=     4.0000
       N       E                     dE             d eps       ncg     rms          rms(c)
DAV:   1    -0.231664099252E+04   -0.11181E-01   -0.12454E+00  4480   0.537E-01    0.326E-01
RMM:   2    -0.231664110522E+04   -0.11270E-03   -0.39382E-03  3631   0.298E-02    0.203E-01
RMM:   3    -0.231664233616E+04   -0.12309E-02   -0.21946E-03  4898   0.182E-02    0.401E-01
RMM:   4    -0.231664101429E+04    0.13219E-02   -0.88529E-04  4119   0.127E-02    0.251E-02
RMM:   5    -0.231664101374E+04    0.55083E-06   -0.11106E-04  2911   0.397E-03    0.198E-02
RMM:   6    -0.231664101133E+04    0.24041E-05   -0.15151E-05  2674   0.254E-03
  25 F= -.23370678E+04 E0= -.23370678E+04  d E =-.544814E-09  mag=     4.0000
       N       E                     dE             d eps       ncg     rms          rms(c)
DAV:   1    -0.231663305417E+04    0.79596E-02   -0.61904E-01  4880   0.398E-01    0.273E-01
RMM:   2    -0.231663273854E+04    0.31563E-03   -0.38436E-03  3624   0.279E-02    0.164E-01
RMM:   3    -0.231663343361E+04   -0.69507E-03   -0.16616E-03  4711   0.163E-02    0.328E-01
RMM:   4    -0.231663257109E+04    0.86252E-03   -0.64931E-04  4035   0.110E-02    0.338E-02
RMM:   5    -0.231663256582E+04    0.52754E-05   -0.12512E-04  3157   0.446E-03    0.231E-02
RMM:   6    -0.231663256012E+04    0.57003E-05   -0.13307E-05  2541   0.287E-03
  26 F= -.23370597E+04 E0= -.23370597E+04  d E =-.412081E-09  mag=     4.0000
       N       E                     dE             d eps       ncg     rms          rms(c)
DAV:   1    -0.231663467797E+04   -0.21122E-02   -0.12492E+00  4800   0.522E-01    0.446E-01
RMM:   2    -0.231663282123E+04    0.18567E-02   -0.90303E-03  3948   0.388E-02    0.245E-01
RMM:   3    -0.231663294676E+04   -0.12553E-03   -0.28954E-03  4738   0.241E-02    0.261E-01
RMM:   4    -0.231663245315E+04    0.49361E-03   -0.76582E-04  4120   0.117E-02    0.943E-02
RMM:   5    -0.231663237302E+04    0.80124E-04   -0.25581E-04  3716   0.692E-03    0.251E-02
RMM:   6    -0.231663236715E+04    0.58684E-05   -0.24951E-05  2801   0.397E-03
  27 F= -.23370592E+04 E0= -.23370592E+04  d E =-.517913E-09  mag=     4.0000
       N       E                     dE             d eps       ncg     rms          rms(c)
DAV:   1    -0.231661740343E+04    0.14970E-01   -0.62967E-01  4640   0.348E-01    0.267E-01
RMM:   2    -0.231661714228E+04    0.26115E-03   -0.25093E-03  3657   0.224E-02    0.155E-01
RMM:   3    -0.231661713291E+04    0.93709E-05   -0.91132E-04  4084   0.131E-02    0.727E-02
RMM:   4    -0.231661712504E+04    0.78718E-05   -0.17084E-04  3230   0.670E-03    0.749E-02
RMM:   5    -0.231661707696E+04    0.48078E-04   -0.39685E-05  2799   0.351E-03    0.103E-02
RMM:   6    -0.231661707625E+04    0.71099E-06   -0.11711E-05  2446   0.216E-03
  28 F= -.23370437E+04 E0= -.23370437E+04  d E =-.467893E-09  mag=     4.0000
       N       E                     dE             d eps       ncg     rms          rms(c)
DAV:   1    -0.231664136110E+04   -0.24284E-01   -0.12974E+00  4960   0.522E-01    0.573E-01
RMM:   2    -0.231663625933E+04    0.51018E-02   -0.17583E-02  4095   0.560E-02    0.293E-01
RMM:   3    -0.231663564237E+04    0.61697E-03   -0.57054E-03  4572   0.349E-02    0.123E-01
RMM:   4    -0.231663579255E+04   -0.15019E-03   -0.92866E-04  4304   0.131E-02    0.212E-01
RMM:   5    -0.231663542402E+04    0.36853E-03   -0.39598E-04  3838   0.890E-03    0.530E-02
RMM:   6    -0.231663540109E+04    0.22934E-04   -0.68860E-05  3391   0.448E-03    0.130E-02
RMM:   7    -0.231663539902E+04    0.20649E-05   -0.75452E-06  2572   0.244E-03
  29 F= -.23370628E+04 E0= -.23370628E+04  d E =-.452148E-09  mag=     4.0000
       N       E                     dE             d eps       ncg     rms          rms(c)
DAV:   1    -0.231663691782E+04   -0.15167E-02   -0.62948E-01  4720   0.362E-01    0.306E-01
RMM:   2    -0.231663606141E+04    0.85640E-03   -0.47628E-03  3930   0.284E-02    0.176E-01
RMM:   3    -0.231663678209E+04   -0.72068E-03   -0.20847E-03  4604   0.194E-02    0.331E-01
RMM:   4    -0.231663589675E+04    0.88534E-03   -0.80654E-04  4266   0.119E-02    0.511E-02
RMM:   5    -0.231663587853E+04    0.18220E-04   -0.17829E-04  3407   0.539E-03    0.255E-02
RMM:   6    -0.231663587246E+04    0.60703E-05   -0.16690E-05  2642   0.337E-03
  30 F= -.23370632E+04 E0= -.23370632E+04  d E =-.572159E-09  mag=     4.0000
       N       E                     dE             d eps       ncg     rms          rms(c)
DAV:   1    -0.231663551776E+04    0.36076E-03   -0.12450E+00  4560   0.500E-01    0.340E-01
RMM:   2    -0.231663559793E+04   -0.80161E-04   -0.44112E-03  3741   0.310E-02    0.220E-01
RMM:   3    -0.231663727837E+04   -0.16804E-02   -0.26251E-03  4819   0.213E-02    0.474E-01
RMM:   4    -0.231663550325E+04    0.17751E-02   -0.13558E-03  4393   0.155E-02    0.291E-02
RMM:   5    -0.231663550900E+04   -0.57491E-05   -0.15797E-04  3094   0.532E-03    0.241E-02
RMM:   6    -0.231663550230E+04    0.66937E-05   -0.13603E-05  2737   0.262E-03
  31 F= -.23370622E+04 E0= -.23370622E+04  d E =-.367922E-09  mag=     4.0000
       N       E                     dE             d eps       ncg     rms          rms(c)
DAV:   1    -0.231662689047E+04    0.86185E-02   -0.63683E-01  4720   0.400E-01    0.325E-01
RMM:   2    -0.231662631411E+04    0.57636E-03   -0.71176E-03  4416   0.368E-02    0.229E-01
RMM:   3    -0.231662647821E+04   -0.16410E-03   -0.17884E-03  4603   0.204E-02    0.301E-01
RMM:   4    -0.231662589298E+04    0.58522E-03   -0.95995E-04  4163   0.117E-02    0.137E-01
RMM:   5    -0.231662577164E+04    0.12135E-03   -0.23564E-04  3618   0.723E-03    0.221E-02
RMM:   6    -0.231662576888E+04    0.27610E-05   -0.37440E-05  2835   0.465E-03
  32 F= -.23370533E+04 E0= -.23370533E+04  d E =-.405381E-09  mag=     4.0000
       N       E                     dE             d eps       ncg     rms          rms(c)
DAV:   1    -0.231663714326E+04   -0.11372E-01   -0.13209E+00  4800   0.505E-01    0.565E-01
RMM:   2    -0.231663377416E+04    0.33691E-02   -0.21724E-02  5005   0.567E-02    0.364E-01
RMM:   3    -0.231663307884E+04    0.69532E-03   -0.43117E-03  4798   0.352E-02    0.373E-01
RMM:   4    -0.231663282205E+04    0.25679E-03   -0.27052E-03  4802   0.186E-02    0.319E-01
RMM:   5    -0.231663199379E+04    0.82826E-03   -0.75920E-04  4241   0.121E-02    0.417E-02
RMM:   6    -0.231663198971E+04    0.40797E-05   -0.14336E-04  3225   0.684E-03    0.181E-02
RMM:   7    -0.231663198760E+04    0.21043E-05   -0.19401E-05  2871   0.273E-03
  33 F= -.23370585E+04 E0= -.23370585E+04  d E =-.532818E-09  mag=     4.0000
       N       E                     dE             d eps       ncg     rms          rms(c)
DAV:   1    -0.231664577312E+04   -0.13783E-01   -0.66482E-01  4800   0.370E-01    0.410E-01
RMM:   2    -0.231664402965E+04    0.17435E-02   -0.10717E-02  4826   0.407E-02    0.282E-01
RMM:   3    -0.231664394529E+04    0.84360E-04   -0.28162E-03  4598   0.263E-02    0.333E-01
RMM:   4    -0.231664335045E+04    0.59484E-03   -0.15157E-03  4470   0.142E-02    0.200E-01
RMM:   5    -0.231664302082E+04    0.32964E-03   -0.38710E-04  3898   0.879E-03    0.321E-02
RMM:   6    -0.231664301938E+04    0.14369E-05   -0.73579E-05  3002   0.544E-03
  34 F= -.23370703E+04 E0= -.23370703E+04  d E =-.601247E-09  mag=     4.0000
       N       E                     dE             d eps       ncg     rms          rms(c)
DAV:   1    -0.231662817106E+04    0.14850E-01   -0.12416E+00  4640   0.501E-01    0.429E-01
RMM:   2    -0.231662736507E+04    0.80599E-03   -0.62299E-03  4216   0.345E-02    0.278E-01
RMM:   3    -0.231662820084E+04   -0.83577E-03   -0.30768E-03  5124   0.224E-02    0.425E-01
RMM:   4    -0.231662703356E+04    0.11673E-02   -0.18541E-03  4689   0.165E-02    0.175E-01
RMM:   5    -0.231662675854E+04    0.27502E-03   -0.36590E-04  4024   0.887E-03    0.322E-02
RMM:   6    -0.231662676238E+04   -0.38335E-05   -0.61222E-05  2963   0.424E-03
  35 F= -.23370535E+04 E0= -.23370535E+04  d E =-.350098E-09  mag=     4.0000
       N       E                     dE             d eps       ncg     rms          rms(c)
DAV:   1    -0.231662575478E+04    0.10038E-02   -0.62832E-01  4880   0.359E-01    0.364E-01
RMM:   2    -0.231662447840E+04    0.12764E-02   -0.91619E-03  4613   0.358E-02    0.232E-01
RMM:   3    -0.231662391228E+04    0.56612E-03   -0.15645E-03  4169   0.222E-02    0.153E-01
RMM:   4    -0.231662436867E+04   -0.45639E-03   -0.11846E-03  4362   0.126E-02    0.267E-01
RMM:   5    -0.231662378046E+04    0.58821E-03   -0.45800E-04  3832   0.892E-03    0.436E-02
RMM:   6    -0.231662377637E+04    0.40975E-05   -0.76282E-05  2959   0.432E-03
  36 F= -.23370512E+04 E0= -.23370512E+04  d E =-.629383E-09  mag=     4.0000
       N       E                     dE             d eps       ncg     rms          rms(c)
DAV:   1    -0.231664465085E+04   -0.20870E-01   -0.12484E+00  4720   0.503E-01    0.489E-01
RMM:   2    -0.231664227515E+04    0.23757E-02   -0.15902E-02  4863   0.471E-02    0.309E-01
RMM:   3    -0.231664137210E+04    0.90305E-03   -0.29176E-03  4247   0.306E-02    0.210E-01
RMM:   4    -0.231664217574E+04   -0.80364E-03   -0.19041E-03  4687   0.166E-02    0.359E-01
RMM:   5    -0.231664118082E+04    0.99492E-03   -0.86883E-04  4435   0.127E-02    0.596E-02
RMM:   6    -0.231664116403E+04    0.16797E-04   -0.10989E-04  3155   0.522E-03    0.228E-02
RMM:   7    -0.231664116402E+04    0.56025E-08   -0.18450E-05  2866   0.294E-03
  37 F= -.23370677E+04 E0= -.23370677E+04  d E =-.339491E-09  mag=     4.0000
