       N       E                     dE             d eps       ncg     rms          rms(c)
DAV:   1     0.131052782921E+05    0.13105E+05   -0.84394E+05  4544   0.144E+03
DAV:   2    -0.100835696227E+04   -0.14114E+05   -0.13481E+05  4944   0.331E+02
DAV:   3    -0.247951624752E+04   -0.14712E+04   -0.14524E+04  5520   0.115E+02
DAV:   4    -0.252713920543E+04   -0.47623E+02   -0.47362E+02  6776   0.301E+01
DAV:   5    -0.252798662772E+04   -0.84742E+00   -0.84558E+00  6216   0.344E+00    0.170E+02
RMM:   6    -0.150119848710E+04    0.10268E+04   -0.19533E+03  4469   0.384E+01    0.739E+01
RMM:   7    -0.168075417341E+04   -0.17956E+03   -0.31606E+02  5323   0.151E+01    0.607E+01
RMM:   8    -0.171139933092E+04   -0.30645E+02   -0.96668E+01  5341   0.922E+00    0.465E+01
RMM:   9    -0.176667937602E+04   -0.55280E+02   -0.61440E+01  4981   0.758E+00    0.364E+01
RMM:  10    -0.189188572476E+04   -0.12521E+03   -0.63770E+01  5175   0.788E+00    0.290E+01
RMM:  11    -0.196410719870E+04   -0.72221E+02   -0.31604E+01  5007   0.539E+00    0.223E+01
RMM:  12    -0.205755575766E+04   -0.93449E+02   -0.38719E+01  5001   0.503E+00    0.190E+01
RMM:  13    -0.209718077962E+04   -0.39625E+02   -0.14604E+01  5407   0.310E+00    0.147E+01
RMM:  14    -0.220395753651E+04   -0.10678E+03   -0.73203E+01  4666   0.622E+00    0.120E+01
RMM:  15    -0.228157382994E+04   -0.77616E+02   -0.71383E+01  4649   0.573E+00    0.815E+00
RMM:  16    -0.230382434238E+04   -0.22251E+02   -0.19913E+01  4819   0.366E+00    0.575E+00
RMM:  17    -0.231395791415E+04   -0.10134E+02   -0.10480E+01  4633   0.219E+00    0.262E+00
RMM:  18    -0.231733102029E+04   -0.33731E+01   -0.23914E+00  4942   0.138E+00    0.147E+00
RMM:  19    -0.231838694509E+04   -0.10559E+01   -0.98948E-01  5059   0.579E-01    0.900E-01
RMM:  20    -0.231868996811E+04   -0.30302E+00   -0.27932E-01  4823   0.409E-01    0.526E-01
RMM:  21    -0.231880283452E+04   -0.11287E+00   -0.98287E-02  4785   0.180E-01    0.300E-01
RMM:  22    -0.231884913920E+04   -0.46305E-01   -0.29210E-02  4658   0.128E-01    0.190E-01
RMM:  23    -0.231887541439E+04   -0.26275E-01   -0.12909E-02  4567   0.793E-02    0.125E-01
RMM:  24    -0.231888920925E+04   -0.13795E-01   -0.46469E-03  4664   0.569E-02    0.858E-02
RMM:  25    -0.231889989028E+04   -0.10681E-01   -0.32642E-03  4492   0.400E-02    0.490E-02
RMM:  26    -0.231890715761E+04   -0.72673E-02   -0.21145E-03  4560   0.354E-02    0.298E-02
RMM:  27    -0.231890960478E+04   -0.24472E-02   -0.88955E-04  4470   0.215E-02    0.220E-02
RMM:  28    -0.231891053854E+04   -0.93377E-03   -0.29454E-04  4055   0.115E-02    0.116E-02
RMM:  29    -0.231891091936E+04   -0.38082E-03   -0.94465E-05  3739   0.786E-03    0.619E-03
RMM:  30    -0.231891104740E+04   -0.12804E-03   -0.29271E-05  3190   0.480E-03    0.447E-03
RMM:  31    -0.231891111216E+04   -0.64755E-04   -0.12203E-05  2924   0.360E-03    0.249E-03
RMM:  32    -0.231891115235E+04   -0.40191E-04   -0.86640E-06  2872   0.296E-03    0.162E-03
RMM:  33    -0.231891116346E+04   -0.11112E-04   -0.39854E-06  2517   0.243E-03    0.948E-04
RMM:  34    -0.231891116804E+04   -0.45740E-05   -0.24700E-06  2440   0.172E-03
   1 F= -.23402822E+04 E0= -.23402813E+04  d E =-.234028E+04  mag=     3.9810
       N       E                     dE             d eps       ncg     rms          rms(c)
DAV:   1    -0.231440619470E+04    0.45050E+01   -0.25902E+02  4688   0.140E+01    0.792E+00
RMM:   2    -0.232738563538E+04   -0.12979E+02   -0.10676E+02  6570   0.558E+00    0.166E+01
RMM:   3    -0.232105775972E+04    0.63279E+01   -0.64317E+00  5799   0.162E+00    0.771E+00
RMM:   4    -0.232045389593E+04    0.60386E+00   -0.13518E+00  6545   0.507E-01    0.481E+00
RMM:   5    -0.232048776778E+04   -0.33872E-01   -0.35456E-01  6191   0.256E-01    0.505E+00
RMM:   6    -0.232027377601E+04    0.21399E+00   -0.17979E-01  6427   0.196E-01    0.249E+00
RMM:   7    -0.232025716846E+04    0.16608E-01   -0.11936E-01  5758   0.166E-01    0.168E+00
RMM:   8    -0.232026985316E+04   -0.12685E-01   -0.56191E-02  5931   0.115E-01    0.128E+00
RMM:   9    -0.232031711089E+04   -0.47258E-01   -0.36009E-02  5308   0.905E-02    0.730E-01
RMM:  10    -0.232036246791E+04   -0.45357E-01   -0.19533E-02  4980   0.702E-02    0.606E-01
RMM:  11    -0.232039791434E+04   -0.35446E-01   -0.12527E-02  4736   0.575E-02    0.327E-01
RMM:  12    -0.232042071967E+04   -0.22805E-01   -0.84777E-03  4827   0.485E-02    0.167E-01
RMM:  13    -0.232043441189E+04   -0.13692E-01   -0.55463E-03  4596   0.389E-02    0.927E-02
RMM:  14    -0.232044165183E+04   -0.72399E-02   -0.27243E-03  4435   0.293E-02    0.571E-02
RMM:  15    -0.232044424486E+04   -0.25930E-02   -0.81220E-04  4564   0.176E-02    0.383E-02
RMM:  16    -0.232044585539E+04   -0.16105E-02   -0.34673E-04  4116   0.119E-02    0.208E-02
RMM:  17    -0.232044628903E+04   -0.43364E-03   -0.98835E-05  3819   0.792E-03    0.138E-02
RMM:  18    -0.232044643588E+04   -0.14686E-03   -0.35555E-05  3294   0.474E-03    0.926E-03
RMM:  19    -0.232044648527E+04   -0.49383E-04   -0.13989E-05  2939   0.426E-03    0.513E-03
RMM:  20    -0.232044649739E+04   -0.12129E-04   -0.63131E-06  2817   0.300E-03    0.219E-03
RMM:  21    -0.232044650301E+04   -0.56164E-05   -0.28283E-06  2653   0.219E-03
   2 F= -.23418077E+04 E0= -.23418077E+04  d E =-.152558E+01  mag=     2.0002
       N       E                     dE             d eps       ncg     rms          rms(c)
DAV:   1    -0.232030931586E+04    0.13718E+00   -0.12369E+01  4776   0.269E+00    0.998E-01
RMM:   2    -0.232055792600E+04   -0.24861E+00   -0.25900E+00  6710   0.886E-01    0.114E+00
RMM:   3    -0.232056893722E+04   -0.11011E-01   -0.24346E-01  6465   0.257E-01    0.105E+00
RMM:   4    -0.232055892856E+04    0.10009E-01   -0.24097E-02  6280   0.651E-02    0.461E-01
RMM:   5    -0.232055809959E+04    0.82896E-03   -0.58276E-03  5804   0.346E-02    0.443E-01
RMM:   6    -0.232055642990E+04    0.16697E-02   -0.54183E-03  6158   0.336E-02    0.297E-01
RMM:   7    -0.232055566717E+04    0.76273E-03   -0.27443E-03  5815   0.238E-02    0.203E-01
RMM:   8    -0.232055518579E+04    0.48138E-03   -0.65928E-04  4181   0.141E-02    0.546E-02
RMM:   9    -0.232055516750E+04    0.18294E-04   -0.98499E-05  3226   0.594E-03    0.242E-02
RMM:  10    -0.232055517189E+04   -0.43946E-05   -0.45448E-05  3106   0.457E-03
   3 F= -.23419184E+04 E0= -.23419184E+04  d E =-.163626E+01  mag=     2.0000
       N       E                     dE             d eps       ncg     rms          rms(c)
DAV:   1    -0.232073325870E+04   -0.17809E+00   -0.62427E+01  4544   0.643E+00    0.255E+00
RMM:   2    -0.232157746517E+04   -0.84421E+00   -0.75339E+00  6636   0.163E+00    0.469E+00
RMM:   3    -0.232135000345E+04    0.22746E+00   -0.65290E-01  6327   0.519E-01    0.183E+00
RMM:   4    -0.232132036397E+04    0.29639E-01   -0.80319E-02  6359   0.140E-01    0.104E+00
RMM:   5    -0.232131893064E+04    0.14333E-02   -0.27548E-02  6358   0.795E-02    0.101E+00
RMM:   6    -0.232130922829E+04    0.97023E-02   -0.22673E-02  6150   0.748E-02    0.481E-01
RMM:   7    -0.232130902048E+04    0.20781E-03   -0.80307E-03  6058   0.511E-02    0.412E-01
RMM:   8    -0.232130678973E+04    0.22307E-02   -0.24111E-03  5314   0.267E-02    0.122E-01
RMM:   9    -0.232130668496E+04    0.10477E-03   -0.36199E-04  3973   0.102E-02    0.572E-02
RMM:  10    -0.232130666346E+04    0.21504E-04   -0.86372E-05  3267   0.598E-03    0.273E-02
RMM:  11    -0.232130667863E+04   -0.15173E-04   -0.38690E-05  3030   0.491E-03    0.153E-02
RMM:  12    -0.232130669395E+04   -0.15327E-04   -0.10992E-05  2919   0.357E-03    0.763E-03
RMM:  13    -0.232130670327E+04   -0.93180E-05   -0.43557E-06  2820   0.261E-03
   4 F= -.23426628E+04 E0= -.23426628E+04  d E =-.744399E+00  mag=     2.0000
       N       E                     dE             d eps       ncg     rms          rms(c)
DAV:   1    -0.232130401371E+04    0.26802E-02   -0.16986E+00  4840   0.105E+00    0.399E-01
RMM:   2    -0.232132548868E+04   -0.21475E-01   -0.19520E-01  6654   0.265E-01    0.741E-01
RMM:   3    -0.232132094013E+04    0.45486E-02   -0.17199E-02  6281   0.797E-02    0.308E-01
RMM:   4    -0.232132008174E+04    0.85839E-03   -0.20769E-03  4987   0.231E-02    0.156E-01
RMM:   5    -0.232132000582E+04    0.75924E-04   -0.70366E-04  4748   0.134E-02    0.151E-01
RMM:   6    -0.232131981328E+04    0.19254E-03   -0.65101E-04  5055   0.135E-02    0.781E-02
RMM:   7    -0.232131980215E+04    0.11126E-04   -0.21785E-04  3597   0.970E-03    0.692E-02
RMM:   8    -0.232131973626E+04    0.65890E-04   -0.49637E-05  2980   0.551E-03    0.175E-02
RMM:   9    -0.232131973356E+04    0.27049E-05   -0.99914E-06  2824   0.256E-03
   5 F= -.23426752E+04 E0= -.23426751E+04  d E =-.756742E+00  mag=     2.0000
       N       E                     dE             d eps       ncg     rms          rms(c)
DAV:   1    -0.232123387632E+04    0.85860E-01   -0.23049E+01  4528   0.444E+00    0.142E+00
RMM:   2    -0.232172039557E+04   -0.48652E+00   -0.50615E+00  6687   0.132E+00    0.178E+00
RMM:   3    -0.232174223048E+04   -0.21835E-01   -0.48496E-01  6411   0.410E-01    0.150E+00
RMM:   4    -0.232171987227E+04    0.22358E-01   -0.45270E-02  6338   0.100E-01    0.652E-01
RMM:   5    -0.232171833541E+04    0.15369E-02   -0.89471E-03  6087   0.456E-02    0.588E-01
RMM:   6    -0.232171689248E+04    0.14429E-02   -0.91830E-03  6160   0.504E-02    0.444E-01
RMM:   7    -0.232171465834E+04    0.22341E-02   -0.39150E-03  6024   0.326E-02    0.967E-02
RMM:   8    -0.232171457394E+04    0.84397E-04   -0.33351E-04  4300   0.114E-02    0.722E-02
RMM:   9    -0.232171458061E+04   -0.66751E-05   -0.24344E-04  3717   0.913E-03    0.790E-02
RMM:  10    -0.232171451924E+04    0.61371E-04   -0.11406E-04  3063   0.689E-03    0.225E-02
RMM:  11    -0.232171452245E+04   -0.32067E-05   -0.17768E-05  2966   0.386E-03
   6 F= -.23430687E+04 E0= -.23430684E+04  d E =-.393498E+00  mag=     2.0000
       N       E                     dE             d eps       ncg     rms          rms(c)
DAV:   1    -0.232048315262E+04    0.12314E+01   -0.67883E+01  4504   0.759E+00    0.294E+00
RMM:   2    -0.232208705753E+04   -0.16039E+01   -0.15808E+01  6687   0.233E+00    0.387E+00
RMM:   3    -0.232205124978E+04    0.35808E-01   -0.13791E+00  6130   0.760E-01    0.315E+00
RMM:   4    -0.232197063393E+04    0.80616E-01   -0.16220E-01  6285   0.182E-01    0.163E+00
RMM:   5    -0.232195714193E+04    0.13492E-01   -0.27494E-02  6082   0.770E-02    0.114E+00
RMM:   6    -0.232196673954E+04   -0.95976E-02   -0.39652E-02  5946   0.939E-02    0.140E+00
RMM:   7    -0.232195469489E+04    0.12045E-01   -0.47030E-02  6085   0.103E-01    0.827E-01
RMM:   8    -0.232194807712E+04    0.66178E-02   -0.11637E-02  5676   0.659E-02    0.250E-01
RMM:   9    -0.232194802980E+04    0.47325E-04   -0.20969E-03  5099   0.216E-02    0.157E-01
RMM:  10    -0.232194804618E+04   -0.16387E-04   -0.45317E-04  4421   0.146E-02    0.761E-02
RMM:  11    -0.232194816044E+04   -0.11425E-03   -0.23198E-04  4140   0.911E-03    0.598E-02
RMM:  12    -0.232194825093E+04   -0.90495E-04   -0.98859E-05  3351   0.757E-03    0.532E-02
RMM:  13    -0.232194833467E+04   -0.83738E-04   -0.85654E-05  3282   0.612E-03    0.464E-02
RMM:  14    -0.232194845089E+04   -0.11622E-03   -0.25930E-04  3887   0.885E-03    0.313E-02
RMM:  15    -0.232194851480E+04   -0.63909E-04   -0.20588E-04  3500   0.798E-03    0.151E-02
RMM:  16    -0.232194855887E+04   -0.44075E-04   -0.70265E-05  3000   0.554E-03    0.111E-02
RMM:  17    -0.232194858876E+04   -0.29882E-04   -0.37128E-05  2944   0.401E-03    0.974E-03
RMM:  18    -0.232194862503E+04   -0.36278E-04   -0.78076E-05  3002   0.489E-03    0.739E-03
RMM:  19    -0.232194864677E+04   -0.21736E-04   -0.29113E-05  2837   0.361E-03    0.542E-03
RMM:  20    -0.232194866183E+04   -0.15064E-04   -0.31153E-05  2860   0.343E-03    0.384E-03
RMM:  21    -0.232194867147E+04   -0.96364E-05   -0.25484E-05  2776   0.314E-03
   7 F= -.23433030E+04 E0= -.23433027E+04  d E =-.627853E+00  mag=     2.0000
       N       E                     dE             d eps       ncg     rms          rms(c)
DAV:   1    -0.232204747922E+04   -0.98817E-01   -0.27980E+01  4504   0.406E+00    0.132E+00
RMM:   2    -0.232224903192E+04   -0.20155E+00   -0.21581E+00  6655   0.103E+00    0.108E+00
RMM:   3    -0.232227565258E+04   -0.26621E-01   -0.18883E-01  6416   0.279E-01    0.158E+00
RMM:   4    -0.232225228136E+04    0.23371E-01   -0.26959E-02  6503   0.869E-02    0.666E-01
RMM:   5    -0.232225419752E+04   -0.19162E-02   -0.10952E-02  6104   0.485E-02    0.762E-01
RMM:   6    -0.232224874833E+04    0.54492E-02   -0.86217E-03  5715   0.528E-02    0.275E-01
RMM:   7    -0.232224869437E+04    0.53956E-04   -0.26008E-03  5366   0.292E-02    0.213E-01
RMM:   8    -0.232224831991E+04    0.37446E-03   -0.69957E-04  4794   0.146E-02    0.116E-01
RMM:   9    -0.232224850459E+04   -0.18468E-03   -0.32232E-04  3754   0.933E-03    0.106E-01
RMM:  10    -0.232224873172E+04   -0.22713E-03   -0.19777E-04  3245   0.753E-03    0.105E-01
RMM:  11    -0.232224895387E+04   -0.22215E-03   -0.16084E-04  3159   0.687E-03    0.102E-01
RMM:  12    -0.232224943163E+04   -0.47776E-03   -0.67150E-04  4042   0.111E-02    0.920E-02
RMM:  13    -0.232225024592E+04   -0.81428E-03   -0.16768E-03  4397   0.164E-02    0.776E-02
RMM:  14    -0.232225056167E+04   -0.31575E-03   -0.21871E-04  3115   0.816E-03    0.861E-02
RMM:  15    -0.232225015092E+04    0.41074E-03   -0.18971E-04  2919   0.640E-03    0.972E-02
RMM:  16    -0.232225181939E+04   -0.16685E-02   -0.47710E-03  4730   0.257E-02    0.623E-02
RMM:  17    -0.232225334524E+04   -0.15258E-02   -0.30870E-03  4401   0.232E-02    0.860E-02
RMM:  18    -0.232225324902E+04    0.96213E-04   -0.21654E-04  3100   0.863E-03    0.124E-01
RMM:  19    -0.232225358457E+04   -0.33555E-03   -0.18213E-04  3104   0.625E-03    0.100E-01
RMM:  20    -0.232225536256E+04   -0.17780E-02   -0.54211E-03  4732   0.283E-02    0.106E-01
RMM:  21    -0.232225568877E+04   -0.32621E-03   -0.35857E-04  3331   0.126E-02    0.989E-02
RMM:  22    -0.232225588739E+04   -0.19862E-03   -0.15947E-04  3106   0.517E-03    0.103E-01
RMM:  23    -0.232225537764E+04    0.50976E-03   -0.32532E-04  3255   0.800E-03    0.120E-01
RMM:  24    -0.232225523342E+04    0.14421E-03   -0.73050E-05  2831   0.457E-03    0.120E-01
RMM:  25    -0.232225545196E+04   -0.21854E-03   -0.56753E-05  2669   0.366E-03    0.106E-01
RMM:  26    -0.232225679143E+04   -0.13395E-02   -0.15220E-02  4911   0.483E-02    0.131E-01
RMM:  27    -0.232225744239E+04   -0.65095E-03   -0.10828E-03  3870   0.206E-02    0.136E-01
RMM:  28    -0.232225747359E+04   -0.31199E-04   -0.13729E-04  3010   0.484E-03    0.139E-01
RMM:  29    -0.232225747758E+04   -0.39982E-05   -0.15346E-05  2832   0.293E-03
   8 F= -.23436113E+04 E0= -.23436113E+04  d E =-.308264E+00  mag=     2.0000
       N       E                     dE             d eps       ncg     rms          rms(c)
DAV:   1    -0.232226060415E+04   -0.31306E-02   -0.79025E+00  4528   0.219E+00    0.660E-01
RMM:   2    -0.232231796768E+04   -0.57364E-01   -0.60329E-01  6655   0.541E-01    0.614E-01
RMM:   3    -0.232232471237E+04   -0.67447E-02   -0.50986E-02  6413   0.142E-01    0.845E-01
RMM:   4    -0.232231742556E+04    0.72868E-02   -0.70949E-03  6089   0.451E-02    0.250E-01
RMM:   5    -0.232231754389E+04   -0.11833E-03   -0.24112E-03  5727   0.252E-02    0.287E-01
RMM:   6    -0.232231695939E+04    0.58451E-03   -0.17722E-03  5664   0.240E-02    0.185E-01
RMM:   7    -0.232231665805E+04    0.30134E-03   -0.66693E-04  4809   0.150E-02    0.879E-02
RMM:   8    -0.232231657009E+04    0.87965E-04   -0.10097E-04  3179   0.699E-03    0.205E-02
RMM:   9    -0.232231657170E+04   -0.16133E-05   -0.21026E-05  2949   0.444E-03
   9 F= -.23436703E+04 E0= -.23436703E+04  d E =-.367237E+00  mag=     2.0000
       N       E                     dE             d eps       ncg     rms          rms(c)
DAV:   1    -0.232231434156E+04    0.22285E-02   -0.90235E-01  4624   0.748E-01    0.217E-01
RMM:   2    -0.232232075002E+04   -0.64085E-02   -0.68840E-02  6653   0.182E-01    0.167E-01
RMM:   3    -0.232232162080E+04   -0.87078E-03   -0.56056E-03  5807   0.466E-02    0.271E-01
RMM:   4    -0.232232085530E+04    0.76550E-03   -0.78620E-04  3996   0.151E-02    0.810E-02
RMM:   5    -0.232232091459E+04   -0.59294E-04   -0.29042E-04  3698   0.977E-03    0.112E-01
RMM:   6    -0.232232080022E+04    0.11438E-03   -0.19862E-04  3757   0.939E-03    0.489E-02
RMM:   7    -0.232232078851E+04    0.11705E-04   -0.74694E-05  3052   0.637E-03    0.321E-02
RMM:   8    -0.232232077707E+04    0.11444E-04   -0.14607E-05  2878   0.405E-03    0.783E-03
RMM:   9    -0.232232077881E+04   -0.17397E-05   -0.43203E-06  2780   0.218E-03
  10 F= -.23436744E+04 E0= -.23436744E+04  d E =-.371418E+00  mag=     2.0000
       N       E                     dE             d eps       ncg     rms          rms(c)
DAV:   1    -0.232231242270E+04    0.83544E-02   -0.93064E+00  4516   0.284E+00    0.904E-01
RMM:   2    -0.232241113168E+04   -0.98709E-01   -0.10018E+00  6434   0.639E-01    0.904E-01
RMM:   3    -0.232241115304E+04   -0.21354E-04   -0.89250E-02  6269   0.211E-01    0.761E-01
RMM:   4    -0.232240577323E+04    0.53798E-02   -0.12391E-02  6304   0.613E-02    0.442E-01
RMM:   5    -0.232240431325E+04    0.14600E-02   -0.41166E-03  5933   0.362E-02    0.312E-01
RMM:   6    -0.232240391269E+04    0.40056E-03   -0.33352E-03  5546   0.333E-02    0.318E-01
RMM:   7    -0.232240316300E+04    0.74969E-03   -0.14786E-03  5138   0.242E-02    0.186E-01
RMM:   8    -0.232240279518E+04    0.36782E-03   -0.36192E-04  4664   0.112E-02    0.315E-02
RMM:   9    -0.232240278837E+04    0.68134E-05   -0.52354E-05  3105   0.611E-03
  11 F= -.23437570E+04 E0= -.23437570E+04  d E =-.825568E-01  mag=     1.9999
       N       E                     dE             d eps       ncg     rms          rms(c)
DAV:   1    -0.232239783840E+04    0.49568E-02   -0.10634E+00  4592   0.964E-01    0.308E-01
RMM:   2    -0.232240934555E+04   -0.11507E-01   -0.11581E-01  6461   0.220E-01    0.321E-01
RMM:   3    -0.232240914795E+04    0.19759E-03   -0.10156E-02  6045   0.712E-02    0.254E-01
RMM:   4    -0.232240855915E+04    0.58880E-03   -0.14981E-03  5597   0.210E-02    0.150E-01
RMM:   5    -0.232240836850E+04    0.19065E-03   -0.48919E-04  4549   0.135E-02    0.101E-01
RMM:   6    -0.232240821775E+04    0.15074E-03   -0.39968E-04  4891   0.129E-02    0.361E-02
RMM:   7    -0.232240821617E+04    0.15816E-05   -0.90432E-05  3322   0.864E-03
  12 F= -.23437626E+04 E0= -.23437626E+04  d E =-.881846E-01  mag=     1.9999
       N       E                     dE             d eps       ncg     rms          rms(c)
DAV:   1    -0.232238009895E+04    0.28119E-01   -0.65410E+00  4516   0.247E+00    0.774E-01
RMM:   2    -0.232248920427E+04   -0.10911E+00   -0.10778E+00  6629   0.595E-01    0.945E-01
RMM:   3    -0.232248778703E+04    0.14172E-02   -0.97096E-02  6476   0.191E-01    0.643E-01
RMM:   4    -0.232248479132E+04    0.29957E-02   -0.12370E-02  6210   0.516E-02    0.432E-01
RMM:   5    -0.232248315045E+04    0.16409E-02   -0.25162E-03  5381   0.253E-02    0.277E-01
RMM:   6    -0.232248333807E+04   -0.18762E-03   -0.18871E-03  5628   0.230E-02    0.318E-01
RMM:   7    -0.232248229520E+04    0.10429E-02   -0.16161E-03  5731   0.231E-02    0.133E-01
RMM:   8    -0.232248208924E+04    0.20596E-03   -0.39185E-04  4769   0.124E-02    0.268E-02
RMM:   9    -0.232248209373E+04   -0.44940E-05   -0.35504E-05  3023   0.542E-03
  13 F= -.23438373E+04 E0= -.23438373E+04  d E =-.747172E-01  mag=     1.9998
       N       E                     dE             d eps       ncg     rms          rms(c)
DAV:   1    -0.232223487657E+04    0.24721E+00   -0.18632E+01  4504   0.417E+00    0.129E+00
RMM:   2    -0.232254437733E+04   -0.30950E+00   -0.30624E+00  6628   0.991E-01    0.156E+00
RMM:   3    -0.232254376485E+04    0.61248E-03   -0.28333E-01  6491   0.327E-01    0.108E+00
RMM:   4    -0.232253443238E+04    0.93325E-02   -0.33517E-02  6366   0.864E-02    0.713E-01
RMM:   5    -0.232253028397E+04    0.41484E-02   -0.69115E-03  5803   0.413E-02    0.476E-01
RMM:   6    -0.232253068458E+04   -0.40061E-03   -0.54235E-03  5902   0.381E-02    0.532E-01
RMM:   7    -0.232252767804E+04    0.30065E-02   -0.45402E-03  6195   0.388E-02    0.207E-01
RMM:   8    -0.232252717906E+04    0.49898E-03   -0.10469E-03  5586   0.199E-02    0.475E-02
RMM:   9    -0.232252718893E+04   -0.98745E-05   -0.96521E-05  3313   0.741E-03
  14 F= -.23438839E+04 E0= -.23438839E+04  d E =-.121319E+00  mag=     1.9997
       N       E                     dE             d eps       ncg     rms          rms(c)
DAV:   1    -0.232245128557E+04    0.75893E-01   -0.94725E+00  4504   0.309E+00    0.865E-01
RMM:   2    -0.232259206754E+04   -0.14078E+00   -0.14252E+00  6604   0.708E-01    0.957E-01
RMM:   3    -0.232260049863E+04   -0.84311E-02   -0.13138E-01  6444   0.230E-01    0.103E+00
RMM:   4    -0.232259140250E+04    0.90961E-02   -0.16578E-02  6245   0.634E-02    0.465E-01
RMM:   5    -0.232258938620E+04    0.20163E-02   -0.38056E-03  5846   0.300E-02    0.305E-01
RMM:   6    -0.232258958698E+04   -0.20078E-03   -0.32405E-03  5772   0.312E-02    0.350E-01
RMM:   7    -0.232258819734E+04    0.13896E-02   -0.18154E-03  5539   0.269E-02    0.111E-01
RMM:   8    -0.232258810026E+04    0.97071E-04   -0.28234E-04  4474   0.106E-02    0.356E-02
RMM:   9    -0.232258809455E+04    0.57174E-05   -0.41678E-05  3003   0.700E-03
  15 F= -.23439449E+04 E0= -.23439449E+04  d E =-.609619E-01  mag=     1.9997
       N       E                     dE             d eps       ncg     rms          rms(c)
DAV:   1    -0.232253421173E+04    0.53889E-01   -0.46140E+00  4560   0.216E+00    0.601E-01
RMM:   2    -0.232260220490E+04   -0.67993E-01   -0.69233E-01  6581   0.493E-01    0.632E-01
RMM:   3    -0.232260678806E+04   -0.45832E-02   -0.62951E-02  6378   0.162E-01    0.721E-01
RMM:   4    -0.232260237947E+04    0.44086E-02   -0.80360E-03  5988   0.440E-02    0.328E-01
RMM:   5    -0.232260139018E+04    0.98929E-03   -0.18797E-03  5452   0.216E-02    0.213E-01
RMM:   6    -0.232260146875E+04   -0.78572E-04   -0.16349E-03  5522   0.227E-02    0.246E-01
RMM:   7    -0.232260080079E+04    0.66796E-03   -0.89646E-04  5168   0.193E-02    0.796E-02
RMM:   8    -0.232260074448E+04    0.56310E-04   -0.13318E-04  3737   0.759E-03    0.277E-02
RMM:   9    -0.232260073760E+04    0.68796E-05   -0.22093E-05  2956   0.545E-03
  16 F= -.23439576E+04 E0= -.23439575E+04  d E =-.736506E-01  mag=     1.9997
       N       E                     dE             d eps       ncg     rms          rms(c)
DAV:   1    -0.232253919299E+04    0.61551E-01   -0.87927E+00  4504   0.289E+00    0.790E-01
RMM:   2    -0.232264733434E+04   -0.10814E+00   -0.11601E+00  6441   0.604E-01    0.617E-01
RMM:   3    -0.232266095442E+04   -0.13620E-01   -0.10707E-01  6180   0.209E-01    0.992E-01
RMM:   4    -0.232265184093E+04    0.91135E-02   -0.12521E-02  6451   0.545E-02    0.335E-01
RMM:   5    -0.232265102685E+04    0.81408E-03   -0.29731E-03  5684   0.301E-02    0.257E-01
RMM:   6    -0.232265053279E+04    0.49406E-03   -0.25264E-03  5985   0.286E-02    0.177E-01
RMM:   7    -0.232265029029E+04    0.24250E-03   -0.89843E-04  5492   0.178E-02    0.118E-01
RMM:   8    -0.232265017962E+04    0.11068E-03   -0.23751E-04  3453   0.103E-02    0.725E-02
RMM:   9    -0.232265013093E+04    0.48682E-04   -0.51646E-05  3093   0.586E-03    0.291E-02
RMM:  10    -0.232265013510E+04   -0.41681E-05   -0.52159E-05  3017   0.504E-03
  17 F= -.23440069E+04 E0= -.23440069E+04  d E =-.493090E-01  mag=     1.9996
       N       E                     dE             d eps       ncg     rms          rms(c)
DAV:   1    -0.232260288054E+04    0.47250E-01   -0.46524E+00  4504   0.210E+00    0.572E-01
RMM:   2    -0.232265930814E+04   -0.56428E-01   -0.61037E-01  6448   0.438E-01    0.393E-01
RMM:   3    -0.232266594028E+04   -0.66321E-02   -0.55371E-02  6137   0.149E-01    0.639E-01
RMM:   4    -0.232266246907E+04    0.34712E-02   -0.64334E-03  6173   0.375E-02    0.256E-01
RMM:   5    -0.232266208708E+04    0.38200E-03   -0.16250E-03  5348   0.215E-02    0.210E-01
RMM:   6    -0.232266179216E+04    0.29492E-03   -0.13001E-03  5626   0.201E-02    0.157E-01
RMM:   7    -0.232266170171E+04    0.90447E-04   -0.65386E-04  5237   0.152E-02    0.117E-01
RMM:   8    -0.232266154942E+04    0.15230E-03   -0.18234E-04  3388   0.941E-03    0.386E-02
RMM:   9    -0.232266154161E+04    0.78096E-05   -0.30008E-05  3057   0.455E-03
  18 F= -.23440182E+04 E0= -.23440182E+04  d E =-.606107E-01  mag=     1.9996
       N       E                     dE             d eps       ncg     rms          rms(c)
DAV:   1    -0.232260965727E+04    0.51892E-01   -0.49933E+00  4516   0.208E+00    0.608E-01
RMM:   2    -0.232269706040E+04   -0.87403E-01   -0.92952E-01  6602   0.491E-01    0.550E-01
RMM:   3    -0.232270540643E+04   -0.83460E-02   -0.95676E-02  6322   0.176E-01    0.606E-01
RMM:   4    -0.232270216554E+04    0.32409E-02   -0.99829E-03  6205   0.436E-02    0.256E-01
RMM:   5    -0.232270193742E+04    0.22812E-03   -0.15433E-03  5388   0.195E-02    0.287E-01
RMM:   6    -0.232270147260E+04    0.46482E-03   -0.13481E-03  5051   0.182E-02    0.227E-01
RMM:   7    -0.232270113603E+04    0.33657E-03   -0.11369E-03  5231   0.182E-02    0.152E-01
RMM:   8    -0.232270092702E+04    0.20901E-03   -0.40587E-04  4832   0.117E-02    0.384E-02
RMM:   9    -0.232270091749E+04    0.95313E-05   -0.39245E-05  3066   0.606E-03
  19 F= -.23440577E+04 E0= -.23440577E+04  d E =-.394977E-01  mag=     1.9996
       N       E                     dE             d eps       ncg     rms          rms(c)
DAV:   1    -0.232230775356E+04    0.39317E+00   -0.22872E+01  4504   0.446E+00    0.131E+00
RMM:   2    -0.232271315690E+04   -0.40540E+00   -0.43375E+00  6616   0.107E+00    0.112E+00
RMM:   3    -0.232275384739E+04   -0.40690E-01   -0.45785E-01  6392   0.379E-01    0.128E+00
RMM:   4    -0.232273992543E+04    0.13922E-01   -0.45856E-02  6668   0.912E-02    0.631E-01
RMM:   5    -0.232273747630E+04    0.24491E-02   -0.71520E-03  5983   0.416E-02    0.505E-01
RMM:   6    -0.232273620069E+04    0.12756E-02   -0.53794E-03  6017   0.353E-02    0.520E-01
RMM:   7    -0.232273476016E+04    0.14405E-02   -0.53745E-03  5997   0.379E-02    0.340E-01
RMM:   8    -0.232273352347E+04    0.12367E-02   -0.19827E-03  5709   0.234E-02    0.899E-02
RMM:   9    -0.232273345970E+04    0.63767E-04   -0.24174E-04  4168   0.111E-02    0.668E-02
RMM:  10    -0.232273342826E+04    0.31438E-04   -0.18053E-04  3257   0.846E-03    0.288E-02
RMM:  11    -0.232273348151E+04   -0.53250E-04   -0.83719E-05  3135   0.603E-03    0.280E-02
RMM:  12    -0.232273354058E+04   -0.59064E-04   -0.25738E-05  2973   0.468E-03    0.209E-02
RMM:  13    -0.232273360667E+04   -0.66091E-04   -0.32222E-05  2982   0.456E-03    0.956E-03
RMM:  14    -0.232273363780E+04   -0.31132E-04   -0.16600E-05  2937   0.395E-03    0.567E-03
RMM:  15    -0.232273365155E+04   -0.13753E-04   -0.78604E-06  2815   0.288E-03    0.344E-03
RMM:  16    -0.232273365858E+04   -0.70303E-05   -0.46561E-06  2600   0.229E-03
  20 F= -.23440906E+04 E0= -.23440906E+04  d E =-.723886E-01  mag=     1.9997
       N       E                     dE             d eps       ncg     rms          rms(c)
DAV:   1    -0.232255624672E+04    0.17740E+00   -0.96290E+00  4504   0.281E+00    0.923E-01
RMM:   2    -0.232277520003E+04   -0.21895E+00   -0.22085E+00  6665   0.774E-01    0.131E+00
RMM:   3    -0.232278052713E+04   -0.53271E-02   -0.22723E-01  6476   0.268E-01    0.868E-01
RMM:   4    -0.232277250034E+04    0.80268E-02   -0.21678E-02  6206   0.618E-02    0.362E-01
RMM:   5    -0.232277314941E+04   -0.64907E-03   -0.32176E-03  5431   0.256E-02    0.539E-01
RMM:   6    -0.232277023820E+04    0.29112E-02   -0.26106E-03  5695   0.262E-02    0.185E-01
RMM:   7    -0.232277030002E+04   -0.61824E-04   -0.24014E-03  5661   0.246E-02    0.197E-01
RMM:   8    -0.232276983670E+04    0.46332E-03   -0.77090E-04  4883   0.160E-02    0.480E-02
RMM:   9    -0.232276980606E+04    0.30641E-04   -0.98132E-05  3052   0.688E-03    0.266E-02
RMM:  10    -0.232276980475E+04    0.13177E-05   -0.46050E-05  3082   0.477E-03
  21 F= -.23441266E+04 E0= -.23441266E+04  d E =-.360268E-01  mag=     1.9998
       N       E                     dE             d eps       ncg     rms          rms(c)
DAV:   1    -0.232251363900E+04    0.25617E+00   -0.12059E+01  4504   0.317E+00    0.104E+00
RMM:   2    -0.232279170314E+04   -0.27806E+00   -0.28056E+00  6663   0.882E-01    0.149E+00
RMM:   3    -0.232279795837E+04   -0.62552E-02   -0.28221E-01  6483   0.297E-01    0.998E-01
RMM:   4    -0.232278767221E+04    0.10286E-01   -0.27308E-02  6290   0.701E-02    0.433E-01
RMM:   5    -0.232278800786E+04   -0.33565E-03   -0.39567E-03  5549   0.286E-02    0.578E-01
RMM:   6    -0.232278451520E+04    0.34927E-02   -0.33900E-03  5738   0.300E-02    0.202E-01
RMM:   7    -0.232278459650E+04   -0.81307E-04   -0.29613E-03  5722   0.279E-02    0.212E-01
RMM:   8    -0.232278406589E+04    0.53061E-03   -0.92396E-04  5013   0.174E-02    0.564E-02
RMM:   9    -0.232278403064E+04    0.35247E-04   -0.12574E-04  3091   0.761E-03    0.309E-02
RMM:  10    -0.232278403868E+04   -0.80309E-05   -0.63043E-05  3168   0.536E-03
  22 F= -.23441407E+04 E0= -.23441407E+04  d E =-.500939E-01  mag=     1.9999
       N       E                     dE             d eps       ncg     rms          rms(c)
DAV:   1    -0.232263569485E+04    0.14834E+00   -0.90186E+00  4504   0.279E+00    0.915E-01
RMM:   2    -0.232282182278E+04   -0.18613E+00   -0.18887E+00  6636   0.769E-01    0.114E+00
RMM:   3    -0.232282711455E+04   -0.52918E-02   -0.17665E-01  6450   0.250E-01    0.859E-01
RMM:   4    -0.232281927960E+04    0.78349E-02   -0.18906E-02  6280   0.620E-02    0.394E-01
RMM:   5    -0.232281854432E+04    0.73528E-03   -0.30513E-03  5539   0.274E-02    0.341E-01
RMM:   6    -0.232281837934E+04    0.16499E-03   -0.24291E-03  5718   0.258E-02    0.384E-01
RMM:   7    -0.232281691252E+04    0.14668E-02   -0.20422E-03  5549   0.257E-02    0.101E-01
RMM:   8    -0.232281683624E+04    0.76282E-04   -0.45655E-04  4913   0.120E-02    0.406E-02
RMM:   9    -0.232281681869E+04    0.17547E-04   -0.59379E-05  2994   0.776E-03    0.223E-02
RMM:  10    -0.232281682132E+04   -0.26342E-05   -0.34624E-05  3011   0.432E-03
  23 F= -.23441736E+04 E0= -.23441736E+04  d E =-.329494E-01  mag=     2.0000
       N       E                     dE             d eps       ncg     rms          rms(c)
DAV:   1    -0.232271174842E+04    0.10507E+00   -0.56813E+00  4504   0.222E+00    0.725E-01
RMM:   2    -0.232282830400E+04   -0.11656E+00   -0.11840E+00  6632   0.606E-01    0.894E-01
RMM:   3    -0.232283172616E+04   -0.34222E-02   -0.10853E-01  6437   0.197E-01    0.679E-01
RMM:   4    -0.232282671952E+04    0.50066E-02   -0.11752E-02  6188   0.493E-02    0.294E-01
RMM:   5    -0.232282633912E+04    0.38040E-03   -0.19545E-03  5337   0.221E-02    0.267E-01
RMM:   6    -0.232282628662E+04    0.52498E-04   -0.15467E-03  5513   0.212E-02    0.317E-01
RMM:   7    -0.232282532361E+04    0.96301E-03   -0.11999E-03  5191   0.199E-02    0.772E-02
RMM:   8    -0.232282527925E+04    0.44365E-04   -0.26170E-04  4476   0.948E-03    0.323E-02
RMM:   9    -0.232282526631E+04    0.12942E-04   -0.36254E-05  2952   0.648E-03    0.177E-02
RMM:  10    -0.232282526588E+04    0.42377E-06   -0.22380E-05  2969   0.361E-03
  24 F= -.23441822E+04 E0= -.23441822E+04  d E =-.414946E-01  mag=     2.0000
       N       E                     dE             d eps       ncg     rms          rms(c)
DAV:   1    -0.232273109519E+04    0.94171E-01   -0.52114E+00  4504   0.210E+00    0.685E-01
RMM:   2    -0.232285193193E+04   -0.12084E+00   -0.12452E+00  6707   0.600E-01    0.772E-01
RMM:   3    -0.232285894696E+04   -0.70150E-02   -0.10848E-01  6474   0.188E-01    0.756E-01
RMM:   4    -0.232285406582E+04    0.48811E-02   -0.12821E-02  6005   0.484E-02    0.385E-01
RMM:   5    -0.232285287046E+04    0.11954E-02   -0.20236E-03  5028   0.213E-02    0.242E-01
RMM:   6    -0.232285277829E+04    0.92166E-04   -0.12182E-03  5220   0.180E-02    0.253E-01
RMM:   7    -0.232285203148E+04    0.74681E-03   -0.11293E-03  5160   0.189E-02    0.752E-02
RMM:   8    -0.232285199798E+04    0.33496E-04   -0.34784E-04  4571   0.107E-02    0.349E-02
RMM:   9    -0.232285198660E+04    0.11380E-04   -0.30304E-05  3060   0.551E-03    0.226E-02
RMM:  10    -0.232285197998E+04    0.66213E-05   -0.26676E-05  2926   0.416E-03
  25 F= -.23442094E+04 E0= -.23442094E+04  d E =-.272451E-01  mag=     2.0000
       N       E                     dE             d eps       ncg     rms          rms(c)
DAV:   1    -0.232210532657E+04    0.74666E+00   -0.32923E+01  4504   0.527E+00    0.177E+00
RMM:   2    -0.232290131044E+04   -0.79598E+00   -0.80900E+00  6709   0.154E+00    0.226E+00
RMM:   3    -0.232293089202E+04   -0.29582E-01   -0.77657E-01  6486   0.500E-01    0.191E+00
RMM:   4    -0.232290234240E+04    0.28550E-01   -0.85407E-02  6428   0.125E-01    0.109E+00
RMM:   5    -0.232289211624E+04    0.10226E-01   -0.14192E-02  6110   0.553E-02    0.625E-01
RMM:   6    -0.232289141330E+04    0.70294E-03   -0.79110E-03  5992   0.420E-02    0.633E-01
RMM:   7    -0.232288664280E+04    0.47705E-02   -0.68792E-03  5941   0.447E-02    0.214E-01
RMM:   8    -0.232288629358E+04    0.34921E-03   -0.25520E-03  5652   0.267E-02    0.903E-02
RMM:   9    -0.232288624444E+04    0.49145E-04   -0.24153E-04  4136   0.123E-02    0.623E-02
RMM:  10    -0.232288620498E+04    0.39455E-04   -0.13431E-04  3110   0.847E-03    0.247E-02
RMM:  11    -0.232288620434E+04    0.64279E-06   -0.43971E-05  3106   0.476E-03
  26 F= -.23442450E+04 E0= -.23442450E+04  d E =-.628282E-01  mag=     2.0000
       N       E                     dE             d eps       ncg     rms          rms(c)
DAV:   1    -0.232283977035E+04    0.46435E-01   -0.20657E+00  4576   0.131E+00    0.427E-01
RMM:   2    -0.232288680573E+04   -0.47035E-01   -0.48802E-01  6698   0.373E-01    0.452E-01
RMM:   3    -0.232289014712E+04   -0.33414E-02   -0.41687E-02  6356   0.117E-01    0.492E-01
RMM:   4    -0.232288807820E+04    0.20689E-02   -0.50407E-03  5411   0.303E-02    0.237E-01
RMM:   5    -0.232288764625E+04    0.43195E-03   -0.77728E-04  4022   0.136E-02    0.156E-01
RMM:   6    -0.232288758505E+04    0.61199E-04   -0.46489E-04  4138   0.120E-02    0.154E-01
RMM:   7    -0.232288730699E+04    0.27806E-03   -0.45794E-04  4438   0.125E-02    0.472E-02
RMM:   8    -0.232288729486E+04    0.12130E-04   -0.14235E-04  3624   0.767E-03    0.233E-02
RMM:   9    -0.232288729042E+04    0.44385E-05   -0.12993E-05  2937   0.466E-03
  27 F= -.23442464E+04 E0= -.23442464E+04  d E =-.642622E-01  mag=     2.0000
       N       E                     dE             d eps       ncg     rms          rms(c)
DAV:   1    -0.232275592513E+04    0.13137E+00   -0.70230E+00  4504   0.245E+00    0.824E-01
RMM:   2    -0.232291757854E+04   -0.16165E+00   -0.15938E+00  6662   0.708E-01    0.119E+00
RMM:   3    -0.232291813202E+04   -0.55349E-03   -0.14262E-01  6477   0.219E-01    0.834E-01
RMM:   4    -0.232291315469E+04    0.49773E-02   -0.17586E-02  6133   0.589E-02    0.534E-01
RMM:   5    -0.232291078898E+04    0.23657E-02   -0.34590E-03  5569   0.286E-02    0.300E-01
RMM:   6    -0.232291062969E+04    0.15929E-03   -0.19444E-03  5631   0.212E-02    0.300E-01
RMM:   7    -0.232290957568E+04    0.10540E-02   -0.16329E-03  5478   0.240E-02    0.921E-02
RMM:   8    -0.232290953149E+04    0.44186E-04   -0.45322E-04  4835   0.129E-02    0.420E-02
RMM:   9    -0.232290951426E+04    0.17236E-04   -0.54699E-05  2981   0.656E-03    0.225E-02
RMM:  10    -0.232290951174E+04    0.25168E-05   -0.31392E-05  2991   0.435E-03
  28 F= -.23442692E+04 E0= -.23442692E+04  d E =-.227858E-01  mag=     1.9999
       N       E                     dE             d eps       ncg     rms          rms(c)
DAV:   1    -0.232278040275E+04    0.12911E+00   -0.61537E+00  4504   0.230E+00    0.770E-01
RMM:   2    -0.232292227217E+04   -0.14187E+00   -0.14028E+00  6661   0.667E-01    0.110E+00
RMM:   3    -0.232292312353E+04   -0.85136E-03   -0.12444E-01  6472   0.205E-01    0.781E-01
RMM:   4    -0.232291862567E+04    0.44979E-02   -0.15264E-02  6065   0.552E-02    0.494E-01
RMM:   5    -0.232291664183E+04    0.19838E-02   -0.29367E-03  5458   0.267E-02    0.281E-01
RMM:   6    -0.232291648994E+04    0.15189E-03   -0.17046E-03  5599   0.202E-02    0.279E-01
RMM:   7    -0.232291558085E+04    0.90909E-03   -0.14461E-03  5395   0.227E-02    0.855E-02
RMM:   8    -0.232291554384E+04    0.37013E-04   -0.38181E-04  4740   0.120E-02    0.399E-02
RMM:   9    -0.232291552894E+04    0.14900E-04   -0.47442E-05  2980   0.626E-03    0.219E-02
RMM:  10    -0.232291552702E+04    0.19167E-05   -0.28942E-05  2989   0.419E-03
  29 F= -.23442758E+04 E0= -.23442758E+04  d E =-.293308E-01  mag=     1.9999
       N       E                     dE             d eps       ncg     rms          rms(c)
DAV:   1    -0.232276791781E+04    0.14761E+00   -0.72385E+00  4504   0.254E+00    0.857E-01
RMM:   2    -0.232294375395E+04   -0.17584E+00   -0.17178E+00  6663   0.737E-01    0.124E+00
RMM:   3    -0.232294213612E+04    0.16178E-02   -0.15413E-01  6483   0.233E-01    0.739E-01
RMM:   4    -0.232293715438E+04    0.49817E-02   -0.17269E-02  6070   0.585E-02    0.465E-01
RMM:   5    -0.232293570150E+04    0.14529E-02   -0.25020E-03  5246   0.251E-02    0.297E-01
RMM:   6    -0.232293552360E+04    0.17790E-03   -0.19601E-03  5634   0.220E-02    0.308E-01
RMM:   7    -0.232293449083E+04    0.10328E-02   -0.16603E-03  5454   0.242E-02    0.894E-02
RMM:   8    -0.232293444030E+04    0.50524E-04   -0.40386E-04  4750   0.116E-02    0.383E-02
RMM:   9    -0.232293442953E+04    0.10770E-04   -0.46798E-05  2957   0.685E-03    0.220E-02
RMM:  10    -0.232293442969E+04   -0.15349E-06   -0.27505E-05  2973   0.423E-03
  30 F= -.23442951E+04 E0= -.23442951E+04  d E =-.193358E-01  mag=     1.9998
       N       E                     dE             d eps       ncg     rms          rms(c)
DAV:   1    -0.232285389565E+04    0.80534E-01   -0.36974E+00  4504   0.182E+00    0.608E-01
RMM:   2    -0.232294260980E+04   -0.88714E-01   -0.87172E-01  6659   0.524E-01    0.855E-01
RMM:   3    -0.232294273683E+04   -0.12703E-03   -0.77061E-02  6472   0.165E-01    0.540E-01
RMM:   4    -0.232293991950E+04    0.28173E-02   -0.86603E-03  5864   0.418E-02    0.311E-01
RMM:   5    -0.232293931376E+04    0.60573E-03   -0.12088E-03  4502   0.181E-02    0.214E-01
RMM:   6    -0.232293920844E+04    0.10533E-03   -0.10155E-03  5356   0.165E-02    0.219E-01
RMM:   7    -0.232293869038E+04    0.51805E-03   -0.84587E-04  4983   0.177E-02    0.615E-02
RMM:   8    -0.232293866941E+04    0.20973E-04   -0.18842E-04  3966   0.844E-03    0.279E-02
RMM:   9    -0.232293866417E+04    0.52357E-05   -0.24385E-05  2924   0.570E-03
  31 F= -.23442997E+04 E0= -.23442996E+04  d E =-.238841E-01  mag=     1.9996
       N       E                     dE             d eps       ncg     rms          rms(c)
DAV:   1    -0.232274114294E+04    0.19753E+00   -0.85715E+00  4504   0.279E+00    0.948E-01
RMM:   2    -0.232296434152E+04   -0.22320E+00   -0.22374E+00  6690   0.806E-01    0.123E+00
RMM:   3    -0.232296997180E+04   -0.56303E-02   -0.20971E-01  6501   0.270E-01    0.889E-01
RMM:   4    -0.232296122530E+04    0.87465E-02   -0.20832E-02  6162   0.664E-02    0.300E-01
RMM:   5    -0.232296060715E+04    0.61816E-03   -0.22371E-03  5574   0.247E-02    0.263E-01
RMM:   6    -0.232295999822E+04    0.60892E-03   -0.19327E-03  5508   0.247E-02    0.195E-01
RMM:   7    -0.232296032940E+04   -0.33118E-03   -0.11114E-03  5281   0.182E-02    0.276E-01
RMM:   8    -0.232295960222E+04    0.72718E-03   -0.52968E-04  4272   0.133E-02    0.406E-02
RMM:   9    -0.232295958526E+04    0.16966E-04   -0.67727E-05  3146   0.565E-03    0.294E-02
RMM:  10    -0.232295957522E+04    0.10034E-04   -0.29684E-05  2925   0.471E-03    0.136E-02
RMM:  11    -0.232295957565E+04   -0.42950E-06   -0.13650E-05  2947   0.301E-03
  32 F= -.23443217E+04 E0= -.23443216E+04  d E =-.220495E-01  mag=     1.9989
       N       E                     dE             d eps       ncg     rms          rms(c)
DAV:   1    -0.232277997502E+04    0.17960E+00   -0.72730E+00  4504   0.257E+00    0.868E-01
RMM:   2    -0.232296804210E+04   -0.18807E+00   -0.18922E+00  6685   0.738E-01    0.111E+00
RMM:   3    -0.232297425057E+04   -0.62085E-02   -0.17708E-01  6499   0.248E-01    0.840E-01
RMM:   4    -0.232296644562E+04    0.78050E-02   -0.17648E-02  6121   0.619E-02    0.280E-01
RMM:   5    -0.232296591493E+04    0.53069E-03   -0.20104E-03  5353   0.231E-02    0.233E-01
RMM:   6    -0.232296562502E+04    0.28991E-03   -0.14672E-03  5443   0.225E-02    0.241E-01
RMM:   7    -0.232296553033E+04    0.94691E-04   -0.11426E-03  5030   0.179E-02    0.225E-01
RMM:   8    -0.232296505164E+04    0.47869E-03   -0.44236E-04  4663   0.124E-02    0.344E-02
RMM:   9    -0.232296503997E+04    0.11670E-04   -0.52343E-05  3088   0.548E-03    0.289E-02
RMM:  10    -0.232296503047E+04    0.95052E-05   -0.28849E-05  2927   0.451E-03
  33 F= -.23443282E+04 E0= -.23443281E+04  d E =-.285937E-01  mag=     1.9976
       N       E                     dE             d eps       ncg     rms          rms(c)
DAV:   1    -0.232277980007E+04    0.18524E+00   -0.78427E+00  4504   0.273E+00    0.944E-01
RMM:   2    -0.232298795375E+04   -0.20815E+00   -0.20473E+00  6619   0.776E-01    0.134E+00
RMM:   3    -0.232298841479E+04   -0.46103E-03   -0.19363E-01  6456   0.270E-01    0.839E-01
RMM:   4    -0.232298064376E+04    0.77710E-02   -0.18868E-02  6119   0.632E-02    0.328E-01
RMM:   5    -0.232298073957E+04   -0.95810E-04   -0.23910E-03  5263   0.247E-02    0.375E-01
RMM:   6    -0.232297962662E+04    0.11130E-02   -0.14860E-03  5595   0.216E-02    0.238E-01
RMM:   7    -0.232297930112E+04    0.32549E-03   -0.14552E-03  5256   0.225E-02    0.136E-01
RMM:   8    -0.232297904299E+04    0.25814E-03   -0.37263E-04  5005   0.123E-02    0.316E-02
RMM:   9    -0.232297903582E+04    0.71658E-05   -0.41510E-05  2989   0.626E-03
  34 F= -.23443433E+04 E0= -.23443430E+04  d E =-.150064E-01  mag=     1.9962
       N       E                     dE             d eps       ncg     rms          rms(c)
DAV:   1    -0.232290577558E+04    0.73267E-01   -0.29478E+00  4504   0.168E+00    0.576E-01
RMM:   2    -0.232298281587E+04   -0.77040E-01   -0.76375E-01  6616   0.474E-01    0.781E-01
RMM:   3    -0.232298439060E+04   -0.15747E-02   -0.71139E-02  6391   0.167E-01    0.552E-01
RMM:   4    -0.232298117800E+04    0.32126E-02   -0.72120E-03  5836   0.401E-02    0.232E-01
RMM:   5    -0.232298101418E+04    0.16382E-03   -0.88654E-04  3981   0.153E-02    0.209E-01
RMM:   6    -0.232298066710E+04    0.34708E-03   -0.60402E-04  5114   0.144E-02    0.135E-01
RMM:   7    -0.232298055282E+04    0.11428E-03   -0.56111E-04  4474   0.150E-02    0.808E-02
RMM:   8    -0.232298047273E+04    0.80089E-04   -0.15486E-04  4120   0.852E-03    0.258E-02
RMM:   9    -0.232298047388E+04   -0.11492E-05   -0.17930E-05  2953   0.513E-03
  35 F= -.23443453E+04 E0= -.23443450E+04  d E =-.170797E-01  mag=     1.9948
       N       E                     dE             d eps       ncg     rms          rms(c)
DAV:   1    -0.232282675020E+04    0.15372E+00   -0.69744E+00  4504   0.261E+00    0.865E-01
RMM:   2    -0.232299917363E+04   -0.17242E+00   -0.17003E+00  6594   0.716E-01    0.118E+00
RMM:   3    -0.232300260726E+04   -0.34336E-02   -0.16059E-01  6454   0.245E-01    0.878E-01
RMM:   4    -0.232299556236E+04    0.70449E-02   -0.16784E-02  6146   0.598E-02    0.483E-01
RMM:   5    -0.232299397289E+04    0.15895E-02   -0.25672E-03  5312   0.254E-02    0.273E-01
RMM:   6    -0.232299334401E+04    0.62888E-03   -0.14981E-03  5450   0.214E-02    0.187E-01
RMM:   7    -0.232299315244E+04    0.19157E-03   -0.12351E-03  5081   0.219E-02    0.127E-01
RMM:   8    -0.232299295348E+04    0.19896E-03   -0.41881E-04  4997   0.126E-02    0.375E-02
RMM:   9    -0.232299294847E+04    0.50124E-05   -0.39367E-05  2966   0.713E-03
  36 F= -.23443583E+04 E0= -.23443579E+04  d E =-.129718E-01  mag=     1.9935
       N       E                     dE             d eps       ncg     rms          rms(c)
DAV:   1    -0.232291894342E+04    0.74010E-01   -0.31910E+00  4516   0.176E+00    0.583E-01
RMM:   2    -0.232299678798E+04   -0.77845E-01   -0.77343E-01  6594   0.481E-01    0.763E-01
RMM:   3    -0.232299961486E+04   -0.28269E-02   -0.71953E-02  6426   0.163E-01    0.625E-01
RMM:   4    -0.232299604192E+04    0.35729E-02   -0.76983E-03  5905   0.411E-02    0.324E-01
RMM:   5    -0.232299530934E+04    0.73258E-03   -0.11962E-03  4383   0.178E-02    0.184E-01
RMM:   6    -0.232299505160E+04    0.25774E-03   -0.71985E-04  5115   0.153E-02    0.131E-01
RMM:   7    -0.232299493529E+04    0.11631E-03   -0.57022E-04  4519   0.154E-02    0.808E-02
RMM:   8    -0.232299486763E+04    0.67659E-04   -0.19048E-04  4304   0.898E-03    0.287E-02
RMM:   9    -0.232299486810E+04   -0.46616E-06   -0.18637E-05  2931   0.565E-03
  37 F= -.23443606E+04 E0= -.23443602E+04  d E =-.152595E-01  mag=     1.9924
       N       E                     dE             d eps       ncg     rms          rms(c)
DAV:   1    -0.232289623142E+04    0.98636E-01   -0.47761E+00  4504   0.209E+00    0.659E-01
RMM:   2    -0.232300470010E+04   -0.10847E+00   -0.10977E+00  6605   0.552E-01    0.817E-01
RMM:   3    -0.232301352688E+04   -0.88268E-02   -0.11124E-01  6435   0.191E-01    0.884E-01
RMM:   4    -0.232300678183E+04    0.67450E-02   -0.11004E-02  5983   0.479E-02    0.299E-01
RMM:   5    -0.232300627080E+04    0.51103E-03   -0.17329E-03  4909   0.209E-02    0.237E-01
RMM:   6    -0.232300576998E+04    0.50083E-03   -0.98881E-04  5143   0.179E-02    0.138E-01
RMM:   7    -0.232300569140E+04    0.78576E-04   -0.71853E-04  4841   0.157E-02    0.112E-01
RMM:   8    -0.232300555236E+04    0.13904E-03   -0.32854E-04  4827   0.113E-02    0.349E-02
RMM:   9    -0.232300554830E+04    0.40599E-05   -0.35403E-05  3043   0.567E-03
  38 F= -.23443719E+04 E0= -.23443715E+04  d E =-.113287E-01  mag=     1.9925
       N       E                     dE             d eps       ncg     rms          rms(c)
DAV:   1    -0.232279233983E+04    0.21321E+00   -0.93078E+00  4504   0.292E+00    0.928E-01
RMM:   2    -0.232300715333E+04   -0.21481E+00   -0.21601E+00  6612   0.775E-01    0.121E+00
RMM:   3    -0.232302146772E+04   -0.14314E-01   -0.22189E-01  6458   0.270E-01    0.119E+00
RMM:   4    -0.232300934232E+04    0.12125E-01   -0.21486E-02  6187   0.661E-02    0.428E-01
RMM:   5    -0.232300825957E+04    0.10828E-02   -0.32995E-03  5508   0.284E-02    0.327E-01
RMM:   6    -0.232300724721E+04    0.10124E-02   -0.19432E-03  5427   0.247E-02    0.182E-01
RMM:   7    -0.232300715094E+04    0.96267E-04   -0.13562E-03  5331   0.209E-02    0.158E-01
RMM:   8    -0.232300686082E+04    0.29012E-03   -0.63618E-04  5314   0.152E-02    0.499E-02
RMM:   9    -0.232300684463E+04    0.16189E-04   -0.68508E-05  3202   0.685E-03    0.399E-02
RMM:  10    -0.232300684025E+04    0.43788E-05   -0.32861E-05  2924   0.455E-03
  39 F= -.23443742E+04 E0= -.23443738E+04  d E =-.136045E-01  mag=     1.9927
       N       E                     dE             d eps       ncg     rms          rms(c)
DAV:   1    -0.232298212445E+04    0.24720E-01   -0.11418E+00  4560   0.102E+00    0.312E-01
RMM:   2    -0.232300673896E+04   -0.24615E-01   -0.26067E-01  6613   0.270E-01    0.204E-01
RMM:   3    -0.232300960556E+04   -0.28666E-02   -0.25089E-02  6141   0.906E-02    0.358E-01
RMM:   4    -0.232300849748E+04    0.11081E-02   -0.26175E-03  4408   0.230E-02    0.129E-01
RMM:   5    -0.232300844119E+04    0.56288E-04   -0.34814E-04  3521   0.104E-02    0.124E-01
RMM:   6    -0.232300832967E+04    0.11152E-03   -0.21966E-04  3793   0.942E-03    0.874E-02
RMM:   7    -0.232300827165E+04    0.58025E-04   -0.19446E-04  3512   0.882E-03    0.497E-02
RMM:   8    -0.232300824827E+04    0.23378E-04   -0.58657E-05  3160   0.625E-03    0.179E-02
RMM:   9    -0.232300824843E+04   -0.16361E-06   -0.89665E-06  2914   0.427E-03
  40 F= -.23443752E+04 E0= -.23443749E+04  d E =-.146577E-01  mag=     1.9926
       N       E                     dE             d eps       ncg     rms          rms(c)
DAV:   1    -0.232286730180E+04    0.14095E+00   -0.66659E+00  4504   0.253E+00    0.822E-01
RMM:   2    -0.232301944864E+04   -0.15215E+00   -0.15269E+00  6507   0.661E-01    0.102E+00
RMM:   3    -0.232302978155E+04   -0.10333E-01   -0.15826E-01  6376   0.238E-01    0.103E+00
RMM:   4    -0.232302045231E+04    0.93292E-02   -0.15478E-02  6210   0.581E-02    0.393E-01
RMM:   5    -0.232301951589E+04    0.93642E-03   -0.27401E-03  5482   0.258E-02    0.292E-01
RMM:   6    -0.232301851159E+04    0.10043E-02   -0.13846E-03  5102   0.224E-02    0.108E-01
RMM:   7    -0.232301855305E+04   -0.41460E-04   -0.80954E-04  5172   0.190E-02    0.109E-01
RMM:   8    -0.232301840219E+04    0.15085E-03   -0.31460E-04  4252   0.111E-02    0.390E-02
RMM:   9    -0.232301838259E+04    0.19603E-04   -0.36351E-05  3090   0.554E-03    0.241E-02
RMM:  10    -0.232301837764E+04    0.49516E-05   -0.19181E-05  2907   0.376E-03
  41 F= -.23443861E+04 E0= -.23443858E+04  d E =-.108314E-01  mag=     1.9939
       N       E                     dE             d eps       ncg     rms          rms(c)
DAV:   1    -0.232298569883E+04    0.32684E-01   -0.14875E+00  4544   0.119E+00    0.385E-01
RMM:   2    -0.232301883351E+04   -0.33135E-01   -0.33753E-01  6499   0.309E-01    0.424E-01
RMM:   3    -0.232302202873E+04   -0.31952E-02   -0.33876E-02  6267   0.110E-01    0.510E-01
RMM:   4    -0.232301969789E+04    0.23308E-02   -0.34605E-03  5450   0.282E-02    0.181E-01
RMM:   5    -0.232301951157E+04    0.18632E-03   -0.65190E-04  3787   0.132E-02    0.144E-01
RMM:   6    -0.232301930064E+04    0.21093E-03   -0.32451E-04  4458   0.117E-02    0.636E-02
RMM:   7    -0.232301930963E+04   -0.89858E-05   -0.23061E-04  3841   0.104E-02    0.644E-02
RMM:   8    -0.232301925474E+04    0.54882E-04   -0.85423E-05  3289   0.699E-03    0.146E-02
RMM:   9    -0.232301925360E+04    0.11469E-05   -0.11201E-05  2934   0.433E-03
  42 F= -.23443873E+04 E0= -.23443870E+04  d E =-.120606E-01  mag=     1.9946
       N       E                     dE             d eps       ncg     rms          rms(c)
DAV:   1    -0.232290195591E+04    0.11730E+00   -0.57778E+00  4504   0.230E+00    0.738E-01
RMM:   2    -0.232303142771E+04   -0.12947E+00   -0.12873E+00  6607   0.600E-01    0.983E-01
RMM:   3    -0.232303618240E+04   -0.47547E-02   -0.13262E-01  6446   0.215E-01    0.771E-01
RMM:   4    -0.232303064687E+04    0.55355E-02   -0.13170E-02  6163   0.516E-02    0.356E-01
RMM:   5    -0.232303005642E+04    0.59046E-03   -0.19450E-03  5284   0.213E-02    0.296E-01
RMM:   6    -0.232302939882E+04    0.65760E-03   -0.11118E-03  5069   0.193E-02    0.174E-01
RMM:   7    -0.232302914919E+04    0.24963E-03   -0.11306E-03  5173   0.195E-02    0.109E-01
RMM:   8    -0.232302900388E+04    0.14531E-03   -0.26683E-04  4344   0.107E-02    0.244E-02
RMM:   9    -0.232302899197E+04    0.11906E-04   -0.25579E-05  2923   0.586E-03    0.159E-02
RMM:  10    -0.232302898759E+04    0.43883E-05   -0.17128E-05  2954   0.308E-03
  43 F= -.23443973E+04 E0= -.23443970E+04  d E =-.996582E-02  mag=     1.9955
       N       E                     dE             d eps       ncg     rms          rms(c)
DAV:   1    -0.232298814452E+04    0.40847E-01   -0.19239E+00  4516   0.133E+00    0.423E-01
RMM:   2    -0.232303045954E+04   -0.42315E-01   -0.42490E-01  6588   0.343E-01    0.529E-01
RMM:   3    -0.232303263293E+04   -0.21734E-02   -0.43062E-02  6339   0.123E-01    0.441E-01
RMM:   4    -0.232303066191E+04    0.19710E-02   -0.42551E-03  5595   0.303E-02    0.175E-01
RMM:   5    -0.232303063928E+04    0.22629E-04   -0.61678E-04  3952   0.125E-02    0.193E-01
RMM:   6    -0.232303031382E+04    0.32546E-03   -0.37589E-04  4547   0.122E-02    0.850E-02
RMM:   7    -0.232303028961E+04    0.24206E-04   -0.34452E-04  4030   0.114E-02    0.681E-02
RMM:   8    -0.232303022772E+04    0.61892E-04   -0.84162E-05  3157   0.719E-03    0.136E-02
RMM:   9    -0.232303022427E+04    0.34511E-05   -0.11286E-05  2903   0.441E-03
  44 F= -.23443987E+04 E0= -.23443984E+04  d E =-.113607E-01  mag=     1.9960
       N       E                     dE             d eps       ncg     rms          rms(c)
DAV:   1    -0.232295735441E+04    0.72873E-01   -0.42717E+00  4504   0.200E+00    0.627E-01
RMM:   2    -0.232303751093E+04   -0.80157E-01   -0.82122E-01  6513   0.495E-01    0.652E-01
RMM:   3    -0.232304398781E+04   -0.64769E-02   -0.83183E-02  6323   0.177E-01    0.702E-01
RMM:   4    -0.232304009076E+04    0.38970E-02   -0.93494E-03  6199   0.471E-02    0.323E-01
RMM:   5    -0.232303941567E+04    0.67509E-03   -0.16728E-03  4995   0.207E-02    0.249E-01
RMM:   6    -0.232303923238E+04    0.18329E-03   -0.91868E-04  5064   0.168E-02    0.210E-01
RMM:   7    -0.232303870124E+04    0.53115E-03   -0.97714E-04  5350   0.185E-02    0.688E-02
RMM:   8    -0.232303865549E+04    0.45747E-04   -0.19762E-04  4065   0.977E-03    0.225E-02
RMM:   9    -0.232303865100E+04    0.44835E-05   -0.19405E-05  2999   0.507E-03
  45 F= -.23444072E+04 E0= -.23444070E+04  d E =-.849075E-02  mag=     1.9965
       N       E                     dE             d eps       ncg     rms          rms(c)
DAV:   1    -0.232297343214E+04    0.65223E-01   -0.34974E+00  4504   0.181E+00    0.568E-01
RMM:   2    -0.232303927905E+04   -0.65847E-01   -0.67298E-01  6516   0.449E-01    0.609E-01
RMM:   3    -0.232304456636E+04   -0.52873E-02   -0.67904E-02  6319   0.158E-01    0.657E-01
RMM:   4    -0.232304125727E+04    0.33091E-02   -0.77317E-03  6055   0.426E-02    0.299E-01
RMM:   5    -0.232304064250E+04    0.61477E-03   -0.13857E-03  4809   0.190E-02    0.222E-01
RMM:   6    -0.232304049569E+04    0.14680E-03   -0.75695E-04  4918   0.155E-02    0.187E-01
RMM:   7    -0.232304006422E+04    0.43148E-03   -0.79972E-04  5223   0.171E-02    0.617E-02
RMM:   8    -0.232304003009E+04    0.34129E-04   -0.16055E-04  3793   0.900E-03    0.205E-02
RMM:   9    -0.232304002781E+04    0.22806E-05   -0.16772E-05  2978   0.497E-03
  46 F= -.23444086E+04 E0= -.23444084E+04  d E =-.995658E-02  mag=     1.9969
       N       E                     dE             d eps       ncg     rms          rms(c)
DAV:   1    -0.232300396821E+04    0.36062E-01   -0.22222E+00  4504   0.144E+00    0.453E-01
RMM:   2    -0.232304636880E+04   -0.42401E-01   -0.42146E-01  6545   0.359E-01    0.603E-01
RMM:   3    -0.232304843299E+04   -0.20642E-02   -0.41012E-02  6310   0.124E-01    0.559E-01
RMM:   4    -0.232304637077E+04    0.20622E-02   -0.49211E-03  5666   0.338E-02    0.249E-01
RMM:   5    -0.232304583443E+04    0.53633E-03   -0.95262E-04  4464   0.160E-02    0.163E-01
RMM:   6    -0.232304580149E+04    0.32943E-04   -0.50640E-04  4511   0.132E-02    0.151E-01
RMM:   7    -0.232304551146E+04    0.29003E-03   -0.52341E-04  4958   0.142E-02    0.432E-02
RMM:   8    -0.232304549667E+04    0.14793E-04   -0.79147E-05  3182   0.735E-03    0.152E-02
RMM:   9    -0.232304549731E+04   -0.64095E-06   -0.98978E-06  2943   0.399E-03
  47 F= -.23444143E+04 E0= -.23444141E+04  d E =-.563156E-02  mag=     1.9972
       N       E                     dE             d eps       ncg     rms          rms(c)
DAV:   1    -0.232296819562E+04    0.77301E-01   -0.42489E+00  4504   0.200E+00    0.626E-01
RMM:   2    -0.232304920627E+04   -0.81011E-01   -0.80701E-01  6543   0.498E-01    0.822E-01
RMM:   3    -0.232305339618E+04   -0.41899E-02   -0.80194E-02  6353   0.173E-01    0.765E-01
RMM:   4    -0.232304944715E+04    0.39490E-02   -0.94402E-03  6049   0.469E-02    0.340E-01
RMM:   5    -0.232304846046E+04    0.98669E-03   -0.18136E-03  5210   0.213E-02    0.227E-01
RMM:   6    -0.232304837937E+04    0.81092E-04   -0.94082E-04  5033   0.171E-02    0.207E-01
RMM:   7    -0.232304783430E+04    0.54508E-03   -0.99132E-04  5379   0.190E-02    0.618E-02
RMM:   8    -0.232304780003E+04    0.34266E-04   -0.15656E-04  3647   0.928E-03    0.211E-02
RMM:   9    -0.232304779814E+04    0.18872E-05   -0.16815E-05  2979   0.472E-03
  48 F= -.23444168E+04 E0= -.23444167E+04  d E =-.818709E-02  mag=     1.9975
       N       E                     dE             d eps       ncg     rms          rms(c)
DAV:   1    -0.232304529400E+04    0.25060E-02   -0.39529E-01  4592   0.668E-01    0.225E-01
RMM:   2    -0.232305272950E+04   -0.74355E-02   -0.65765E-02  6346   0.165E-01    0.402E-01
RMM:   3    -0.232305187076E+04    0.85874E-03   -0.60656E-03  5874   0.568E-02    0.215E-01
RMM:   4    -0.232305160370E+04    0.26706E-03   -0.77419E-04  4677   0.157E-02    0.124E-01
RMM:   5    -0.232305147554E+04    0.12816E-03   -0.21439E-04  3468   0.962E-03    0.758E-02
RMM:   6    -0.232305145371E+04    0.21834E-04   -0.15774E-04  4305   0.878E-03    0.601E-02
RMM:   7    -0.232305140629E+04    0.47423E-04   -0.83461E-05  3069   0.768E-03    0.203E-02
RMM:   8    -0.232305140278E+04    0.35046E-05   -0.13748E-05  2935   0.384E-03
  49 F= -.23444205E+04 E0= -.23444203E+04  d E =-.367283E-02  mag=     1.9976
       N       E                     dE             d eps       ncg     rms          rms(c)
DAV:   1    -0.232304145166E+04    0.99546E-02   -0.69647E-01  4544   0.887E-01    0.297E-01
RMM:   2    -0.232305423980E+04   -0.12788E-01   -0.11528E-01  6327   0.217E-01    0.506E-01
RMM:   3    -0.232305305456E+04    0.11852E-02   -0.10646E-02  6025   0.730E-02    0.293E-01
RMM:   4    -0.232305251919E+04    0.53537E-03   -0.13536E-03  5151   0.205E-02    0.161E-01
RMM:   5    -0.232305231268E+04    0.20651E-03   -0.37278E-04  3890   0.124E-02    0.101E-01
RMM:   6    -0.232305227496E+04    0.37717E-04   -0.27285E-04  4661   0.110E-02    0.825E-02
RMM:   7    -0.232305218289E+04    0.92075E-04   -0.14906E-04  3345   0.981E-03    0.264E-02
RMM:   8    -0.232305217601E+04    0.68770E-05   -0.23773E-05  3009   0.460E-03
  50 F= -.23444213E+04 E0= -.23444212E+04  d E =-.453921E-02  mag=     1.9977
       N       E                     dE             d eps       ncg     rms          rms(c)
DAV:   1    -0.232305154122E+04    0.64166E-03   -0.57189E-02  4688   0.254E-01    0.832E-02
RMM:   2    -0.232305256113E+04   -0.10199E-02   -0.93585E-03  6453   0.632E-02    0.137E-01
RMM:   3    -0.232305249054E+04    0.70588E-04   -0.87638E-04  3908   0.212E-02    0.845E-02
RMM:   4    -0.232305244172E+04    0.48828E-04   -0.10358E-04  3036   0.711E-03    0.435E-02
RMM:   5    -0.232305242776E+04    0.13961E-04   -0.29942E-05  2968   0.454E-03    0.290E-02
RMM:   6    -0.232305242249E+04    0.52630E-05   -0.23817E-05  2979   0.409E-03
  51 F= -.23444216E+04 E0= -.23444214E+04  d E =-.475873E-02  mag=     1.9976
       N       E                     dE             d eps       ncg     rms          rms(c)
DAV:   1    -0.232304925555E+04    0.31722E-02   -0.43182E-01  4544   0.712E-01    0.214E-01
RMM:   2    -0.232305621593E+04   -0.69604E-02   -0.65267E-02  6354   0.167E-01    0.326E-01
RMM:   3    -0.232305607399E+04    0.14194E-03   -0.61753E-03  5664   0.575E-02    0.250E-01
RMM:   4    -0.232305559756E+04    0.47643E-03   -0.84559E-04  4720   0.158E-02    0.967E-02
RMM:   5    -0.232305550171E+04    0.95855E-04   -0.19841E-04  3334   0.950E-03    0.655E-02
RMM:   6    -0.232305553290E+04   -0.31189E-04   -0.14451E-04  3754   0.859E-03    0.886E-02
RMM:   7    -0.232305543987E+04    0.93030E-04   -0.10856E-04  3461   0.831E-03    0.175E-02
RMM:   8    -0.232305543689E+04    0.29710E-05   -0.20096E-05  2993   0.499E-03
  52 F= -.23444247E+04 E0= -.23444246E+04  d E =-.314317E-02  mag=     1.9975
       N       E                     dE             d eps       ncg     rms          rms(c)
DAV:   1    -0.232304355681E+04    0.11883E-01   -0.92167E-01  4504   0.104E+00    0.314E-01
RMM:   2    -0.232305833346E+04   -0.14777E-01   -0.13947E-01  6334   0.242E-01    0.464E-01
RMM:   3    -0.232305816853E+04    0.16493E-03   -0.13041E-02  5946   0.812E-02    0.376E-01
RMM:   4    -0.232305711813E+04    0.10504E-02   -0.18711E-03  5490   0.229E-02    0.149E-01
RMM:   5    -0.232305687701E+04    0.24112E-03   -0.44880E-04  4037   0.134E-02    0.930E-02
RMM:   6    -0.232305696116E+04   -0.84151E-04   -0.31736E-04  4632   0.115E-02    0.133E-01
RMM:   7    -0.232305675698E+04    0.20418E-03   -0.22343E-04  4296   0.109E-02    0.278E-02
RMM:   8    -0.232305674909E+04    0.78887E-05   -0.38254E-05  3080   0.553E-03
  53 F= -.23444262E+04 E0= -.23444260E+04  d E =-.464792E-02  mag=     1.9973
       N       E                     dE             d eps       ncg     rms          rms(c)
DAV:   1    -0.232305515983E+04    0.15972E-02   -0.37596E-01  4560   0.638E-01    0.165E-01
RMM:   2    -0.232305937898E+04   -0.42192E-02   -0.42535E-02  6390   0.138E-01    0.180E-01
RMM:   3    -0.232305977934E+04   -0.40036E-03   -0.39297E-03  5347   0.444E-02    0.230E-01
RMM:   4    -0.232305932230E+04    0.45704E-03   -0.54965E-04  3885   0.129E-02    0.742E-02
RMM:   5    -0.232305927694E+04    0.45365E-04   -0.13839E-04  3146   0.803E-03    0.554E-02
RMM:   6    -0.232305926209E+04    0.14850E-04   -0.95015E-05  3594   0.765E-03    0.471E-02
RMM:   7    -0.232305925773E+04    0.43610E-05   -0.58864E-05  3091   0.678E-03
  54 F= -.23444289E+04 E0= -.23444287E+04  d E =-.269857E-02  mag=     1.9969
       N       E                     dE             d eps       ncg     rms          rms(c)
DAV:   1    -0.232304387587E+04    0.15386E-01   -0.15440E+00  4504   0.129E+00    0.334E-01
RMM:   2    -0.232306112236E+04   -0.17246E-01   -0.17420E-01  6415   0.278E-01    0.364E-01
RMM:   3    -0.232306283940E+04   -0.17170E-02   -0.16073E-02  6018   0.916E-02    0.470E-01
RMM:   4    -0.232306091026E+04    0.19291E-02   -0.22469E-03  5657   0.254E-02    0.145E-01
RMM:   5    -0.232306073305E+04    0.17721E-03   -0.55540E-04  4414   0.142E-02    0.111E-01
RMM:   6    -0.232306064501E+04    0.88035E-04   -0.36509E-04  4872   0.131E-02    0.833E-02
RMM:   7    -0.232306065791E+04   -0.12892E-04   -0.22126E-04  3712   0.115E-02    0.907E-02
RMM:   8    -0.232306056783E+04    0.90080E-04   -0.83598E-05  3318   0.717E-03    0.143E-02
RMM:   9    -0.232306056480E+04    0.30264E-05   -0.10928E-05  2921   0.418E-03
  55 F= -.23444306E+04 E0= -.23444304E+04  d E =-.439715E-02  mag=     1.9958
       N       E                     dE             d eps       ncg     rms          rms(c)
DAV:   1    -0.232305886223E+04    0.17056E-02   -0.38644E-01  4560   0.675E-01    0.181E-01
RMM:   2    -0.232306279467E+04   -0.39324E-02   -0.39999E-02  6187   0.141E-01    0.165E-01
RMM:   3    -0.232306335008E+04   -0.55541E-03   -0.36390E-03  5591   0.494E-02    0.255E-01
RMM:   4    -0.232306277807E+04    0.57201E-03   -0.46834E-04  4279   0.138E-02    0.743E-02
RMM:   5    -0.232306277788E+04    0.19382E-06   -0.15048E-04  3236   0.886E-03    0.754E-02
RMM:   6    -0.232306275052E+04    0.27362E-04   -0.12534E-04  4070   0.836E-03    0.547E-02
RMM:   7    -0.232306271499E+04    0.35525E-04   -0.62157E-05  3004   0.712E-03    0.170E-02
RMM:   8    -0.232306271213E+04    0.28641E-05   -0.81420E-06  2886   0.345E-03
  56 F= -.23444328E+04 E0= -.23444326E+04  d E =-.222372E-02  mag=     1.9951
       N       E                     dE             d eps       ncg     rms          rms(c)
DAV:   1    -0.232305734372E+04    0.53713E-02   -0.61977E-01  4504   0.854E-01    0.230E-01
RMM:   2    -0.232306367728E+04   -0.63336E-02   -0.64265E-02  6150   0.178E-01    0.213E-01
RMM:   3    -0.232306455277E+04   -0.87549E-03   -0.58222E-03  5783   0.594E-02    0.323E-01
RMM:   4    -0.232306363450E+04    0.91827E-03   -0.75511E-04  5044   0.172E-02    0.957E-02
RMM:   5    -0.232306362887E+04    0.56383E-05   -0.24111E-04  3387   0.107E-02    0.956E-02
RMM:   6    -0.232306358965E+04    0.39220E-04   -0.20371E-04  4398   0.102E-02    0.711E-02
RMM:   7    -0.232306352741E+04    0.62232E-04   -0.10086E-04  3124   0.866E-03    0.207E-02
RMM:   8    -0.232306352326E+04    0.41494E-05   -0.12738E-05  2927   0.396E-03
  57 F= -.23444337E+04 E0= -.23444334E+04  d E =-.313506E-02  mag=     1.9944
       N       E                     dE             d eps       ncg     rms          rms(c)
DAV:   1    -0.232306197059E+04    0.15568E-02   -0.41084E-01  4560   0.705E-01    0.206E-01
RMM:   2    -0.232306701074E+04   -0.50401E-02   -0.46265E-02  6151   0.148E-01    0.297E-01
RMM:   3    -0.232306682906E+04    0.18167E-03   -0.41969E-03  5775   0.511E-02    0.222E-01
RMM:   4    -0.232306644959E+04    0.37947E-03   -0.51714E-04  4636   0.143E-02    0.109E-01
RMM:   5    -0.232306636383E+04    0.85767E-04   -0.15208E-04  3171   0.890E-03    0.639E-02
RMM:   6    -0.232306632749E+04    0.36337E-04   -0.12743E-04  4325   0.851E-03    0.325E-02
RMM:   7    -0.232306632268E+04    0.48055E-05   -0.49322E-05  2998   0.693E-03
  58 F= -.23444365E+04 E0= -.23444362E+04  d E =-.277216E-02  mag=     1.9944
       N       E                     dE             d eps       ncg     rms          rms(c)
DAV:   1    -0.232305242761E+04    0.13900E-01   -0.14855E+00  4504   0.134E+00    0.389E-01
RMM:   2    -0.232307018719E+04   -0.17760E-01   -0.16704E-01  6183   0.281E-01    0.522E-01
RMM:   3    -0.232307016646E+04    0.20730E-04   -0.15305E-02  5933   0.102E-01    0.435E-01
RMM:   4    -0.232306860793E+04    0.15585E-02   -0.18256E-03  5356   0.273E-02    0.196E-01
RMM:   5    -0.232306837068E+04    0.23724E-03   -0.56144E-04  4144   0.162E-02    0.127E-01
RMM:   6    -0.232306821219E+04    0.15850E-03   -0.43175E-04  4806   0.146E-02    0.586E-02
RMM:   7    -0.232306820108E+04    0.11105E-04   -0.17433E-04  3512   0.117E-02    0.469E-02
RMM:   8    -0.232306817044E+04    0.30644E-04   -0.34570E-05  2967   0.489E-03    0.120E-02
RMM:   9    -0.232306816892E+04    0.15140E-05   -0.64541E-06  2891   0.322E-03
  59 F= -.23444383E+04 E0= -.23444380E+04  d E =-.457308E-02  mag=     1.9948
       N       E                     dE             d eps       ncg     rms          rms(c)
DAV:   1    -0.232306608642E+04    0.20840E-02   -0.36680E-01  4516   0.634E-01    0.173E-01
RMM:   2    -0.232307124219E+04   -0.51558E-02   -0.45645E-02  6358   0.136E-01    0.325E-01
RMM:   3    -0.232307070589E+04    0.53630E-03   -0.41551E-03  5479   0.455E-02    0.152E-01
RMM:   4    -0.232307054945E+04    0.15644E-03   -0.48327E-04  3763   0.118E-02    0.885E-02
RMM:   5    -0.232307049826E+04    0.51193E-04   -0.10615E-04  3107   0.744E-03    0.578E-02
RMM:   6    -0.232307045730E+04    0.40956E-04   -0.10308E-04  4101   0.776E-03    0.197E-02
RMM:   7    -0.232307045901E+04   -0.17022E-05   -0.22761E-05  2932   0.585E-03
  60 F= -.23444407E+04 E0= -.23444404E+04  d E =-.233534E-02  mag=     1.9953
       N       E                     dE             d eps       ncg     rms          rms(c)
DAV:   1    -0.232303480853E+04    0.35649E-01   -0.32930E+00  4504   0.190E+00    0.513E-01
RMM:   2    -0.232308017848E+04   -0.45370E-01   -0.41008E-01  6394   0.406E-01    0.925E-01
RMM:   3    -0.232307660497E+04    0.35735E-02   -0.37946E-02  6132   0.136E-01    0.466E-01
RMM:   4    -0.232307490170E+04    0.17033E-02   -0.42245E-03  5433   0.345E-02    0.235E-01
RMM:   5    -0.232307467611E+04    0.22559E-03   -0.92897E-04  4692   0.190E-02    0.189E-01
RMM:   6    -0.232307425014E+04    0.42597E-03   -0.83760E-04  4892   0.198E-02    0.694E-02
RMM:   7    -0.232307426703E+04   -0.16888E-04   -0.27179E-04  3963   0.148E-02    0.635E-02
RMM:   8    -0.232307420673E+04    0.60302E-04   -0.59713E-05  3084   0.549E-03    0.167E-02
RMM:   9    -0.232307420145E+04    0.52725E-05   -0.10049E-05  2927   0.344E-03
  61 F= -.23444445E+04 E0= -.23444444E+04  d E =-.622812E-02  mag=     1.9966
       N       E                     dE             d eps       ncg     rms          rms(c)
DAV:   1    -0.232306932439E+04    0.48823E-02   -0.42866E-01  4560   0.686E-01    0.185E-01
RMM:   2    -0.232307523082E+04   -0.59064E-02   -0.53299E-02  6360   0.147E-01    0.333E-01
RMM:   3    -0.232307475231E+04    0.47850E-03   -0.48581E-03  5572   0.493E-02    0.168E-01
RMM:   4    -0.232307454096E+04    0.21135E-03   -0.55319E-04  4003   0.127E-02    0.909E-02
RMM:   5    -0.232307449508E+04    0.45880E-04   -0.12452E-04  3120   0.787E-03    0.653E-02
RMM:   6    -0.232307444006E+04    0.55022E-04   -0.11843E-04  4190   0.836E-03    0.206E-02
RMM:   7    -0.232307444038E+04   -0.32628E-06   -0.25125E-05  2946   0.608E-03
  62 F= -.23444448E+04 E0= -.23444447E+04  d E =-.652656E-02  mag=     1.9972
       N       E                     dE             d eps       ncg     rms          rms(c)
DAV:   1    -0.232306807241E+04    0.63676E-02   -0.78679E-01  4504   0.925E-01    0.264E-01
RMM:   2    -0.232307864261E+04   -0.10570E-01   -0.10262E-01  6341   0.202E-01    0.357E-01
RMM:   3    -0.232307902889E+04   -0.38628E-03   -0.97761E-03  5898   0.711E-02    0.309E-01
RMM:   4    -0.232307817956E+04    0.84933E-03   -0.10766E-03  5048   0.188E-02    0.109E-01
RMM:   5    -0.232307816632E+04    0.13238E-04   -0.27973E-04  3404   0.107E-02    0.105E-01
RMM:   6    -0.232307804861E+04    0.11771E-03   -0.23534E-04  4510   0.111E-02    0.388E-02
RMM:   7    -0.232307805294E+04   -0.43348E-05   -0.90907E-05  3188   0.834E-03
  63 F= -.23444486E+04 E0= -.23444484E+04  d E =-.371363E-02  mag=     1.9976
       N       E                     dE             d eps       ncg     rms          rms(c)
DAV:   1    -0.232302443447E+04    0.53614E-01   -0.44536E+00  4504   0.220E+00    0.630E-01
RMM:   2    -0.232308511270E+04   -0.60678E-01   -0.58363E-01  6369   0.482E-01    0.888E-01
RMM:   3    -0.232308630308E+04   -0.11904E-02   -0.56489E-02  6092   0.167E-01    0.704E-01
RMM:   4    -0.232308172506E+04    0.45780E-02   -0.61070E-03  5698   0.441E-02    0.243E-01
RMM:   5    -0.232308178731E+04   -0.62255E-04   -0.15684E-03  5161   0.230E-02    0.260E-01
RMM:   6    -0.232308115269E+04    0.63462E-03   -0.12661E-03  5240   0.231E-02    0.127E-01
RMM:   7    -0.232308105672E+04    0.95970E-04   -0.63441E-04  4635   0.180E-02    0.827E-02
RMM:   8    -0.232308095847E+04    0.98249E-04   -0.92500E-05  3261   0.694E-03    0.180E-02
RMM:   9    -0.232308095468E+04    0.37917E-05   -0.17018E-05  2972   0.412E-03
  64 F= -.23444517E+04 E0= -.23444516E+04  d E =-.688208E-02  mag=     1.9984
       N       E                     dE             d eps       ncg     rms          rms(c)
DAV:   1    -0.232307132839E+04    0.96301E-02   -0.91258E-01  4504   0.981E-01    0.279E-01
RMM:   2    -0.232308500662E+04   -0.13678E-01   -0.13265E-01  6468   0.220E-01    0.394E-01
RMM:   3    -0.232308529823E+04   -0.29161E-03   -0.12281E-02  6020   0.735E-02    0.306E-01
RMM:   4    -0.232308451379E+04    0.78444E-03   -0.13553E-03  4995   0.195E-02    0.131E-01
RMM:   5    -0.232308444999E+04    0.63799E-04   -0.30405E-04  3352   0.105E-02    0.108E-01
RMM:   6    -0.232308434441E+04    0.10559E-03   -0.26221E-04  4507   0.113E-02    0.506E-02
RMM:   7    -0.232308434237E+04    0.20334E-05   -0.13021E-04  3441   0.865E-03    0.408E-02
RMM:   8    -0.232308432042E+04    0.21949E-04   -0.25276E-05  2956   0.461E-03    0.117E-02
RMM:   9    -0.232308432058E+04   -0.15742E-06   -0.49541E-06  2884   0.266E-03
  65 F= -.23444553E+04 E0= -.23444552E+04  d E =-.353937E-02  mag=     1.9988
       N       E                     dE             d eps       ncg     rms          rms(c)
DAV:   1    -0.232297108322E+04    0.11324E+00   -0.81845E+00  4504   0.294E+00    0.832E-01
RMM:   2    -0.232309383252E+04   -0.12275E+00   -0.11965E+00  6498   0.663E-01    0.117E+00
RMM:   3    -0.232309720181E+04   -0.33693E-02   -0.11513E-01  6289   0.222E-01    0.903E-01
RMM:   4    -0.232308964480E+04    0.75570E-02   -0.12066E-02  5801   0.578E-02    0.336E-01
RMM:   5    -0.232308974186E+04   -0.97061E-04   -0.27151E-03  5319   0.288E-02    0.354E-01
RMM:   6    -0.232308854035E+04    0.12015E-02   -0.21003E-03  5305   0.290E-02    0.164E-01
RMM:   7    -0.232308848785E+04    0.52496E-04   -0.12753E-03  5059   0.228E-02    0.130E-01
RMM:   8    -0.232308824751E+04    0.24035E-03   -0.24244E-04  3934   0.104E-02    0.277E-02
RMM:   9    -0.232308823765E+04    0.98549E-05   -0.38020E-05  3014   0.538E-03
  66 F= -.23444598E+04 E0= -.23444597E+04  d E =-.803667E-02  mag=     1.9992
       N       E                     dE             d eps       ncg     rms          rms(c)
DAV:   1    -0.232307488025E+04    0.13367E-01   -0.11545E+00  4504   0.110E+00    0.345E-01
RMM:   2    -0.232309379767E+04   -0.18917E-01   -0.17616E-01  6295   0.251E-01    0.543E-01
RMM:   3    -0.232309309737E+04    0.70030E-03   -0.16489E-02  6015   0.908E-02    0.332E-01
RMM:   4    -0.232309225040E+04    0.84698E-03   -0.18833E-03  5295   0.230E-02    0.181E-01
RMM:   5    -0.232309203003E+04    0.22037E-03   -0.45398E-04  3643   0.132E-02    0.118E-01
RMM:   6    -0.232309185786E+04    0.17216E-03   -0.37995E-04  4731   0.138E-02    0.291E-02
RMM:   7    -0.232309186441E+04   -0.65429E-05   -0.68957E-05  3186   0.907E-03
  67 F= -.23444639E+04 E0= -.23444638E+04  d E =-.411910E-02  mag=     1.9993
       N       E                     dE             d eps       ncg     rms          rms(c)
DAV:   1    -0.232306963616E+04    0.22222E-01   -0.15596E+00  4504   0.128E+00    0.400E-01
RMM:   2    -0.232309474547E+04   -0.25109E-01   -0.23819E-01  6297   0.292E-01    0.594E-01
RMM:   3    -0.232309439661E+04    0.34885E-03   -0.22119E-02  6034   0.105E-01    0.399E-01
RMM:   4    -0.232309309718E+04    0.12994E-02   -0.24961E-03  5438   0.269E-02    0.203E-01
RMM:   5    -0.232309285130E+04    0.24588E-03   -0.62750E-04  3934   0.150E-02    0.141E-01
RMM:   6    -0.232309260328E+04    0.24802E-03   -0.50067E-04  4858   0.157E-02    0.345E-02
RMM:   7    -0.232309260546E+04   -0.21823E-05   -0.84804E-05  3511   0.990E-03
  68 F= -.23444652E+04 E0= -.23444652E+04  d E =-.544948E-02  mag=     1.9994
       N       E                     dE             d eps       ncg     rms          rms(c)
DAV:   1    -0.232307311934E+04    0.19484E-01   -0.13887E+00  4504   0.116E+00    0.356E-01
RMM:   2    -0.232309835027E+04   -0.25231E-01   -0.23669E-01  6521   0.273E-01    0.604E-01
RMM:   3    -0.232309736646E+04    0.98381E-03   -0.22203E-02  6112   0.949E-02    0.330E-01
RMM:   4    -0.232309666120E+04    0.70527E-03   -0.25064E-03  5281   0.237E-02    0.206E-01
RMM:   5    -0.232309634343E+04    0.31776E-03   -0.51589E-04  3749   0.127E-02    0.124E-01
RMM:   6    -0.232309621023E+04    0.13320E-03   -0.45678E-04  4696   0.136E-02    0.709E-02
RMM:   7    -0.232309617351E+04    0.36722E-04   -0.20984E-04  3532   0.108E-02    0.470E-02
RMM:   8    -0.232309614346E+04    0.30049E-04   -0.39067E-05  3015   0.521E-03    0.105E-02
RMM:   9    -0.232309614135E+04    0.21070E-05   -0.71210E-06  2918   0.309E-03
  69 F= -.23444694E+04 E0= -.23444694E+04  d E =-.418398E-02  mag=     1.9995
       N       E                     dE             d eps       ncg     rms          rms(c)
DAV:   1    -0.232301201317E+04    0.84130E-01   -0.51838E+00  4504   0.224E+00    0.680E-01
RMM:   2    -0.232310545638E+04   -0.93443E-01   -0.88342E-01  6505   0.524E-01    0.115E+00
RMM:   3    -0.232310275611E+04    0.27003E-02   -0.82785E-02  6275   0.182E-01    0.643E-01
RMM:   4    -0.232309975753E+04    0.29986E-02   -0.90400E-03  5743   0.452E-02    0.376E-01
RMM:   5    -0.232309879225E+04    0.96528E-03   -0.18042E-03  5192   0.226E-02    0.244E-01
RMM:   6    -0.232309801702E+04    0.77523E-03   -0.16459E-03  5085   0.254E-02    0.669E-02
RMM:   7    -0.232309802861E+04   -0.11593E-04   -0.30865E-04  4279   0.156E-02    0.497E-02
RMM:   8    -0.232309800808E+04    0.20532E-04   -0.90250E-05  3187   0.632E-03    0.315E-02
RMM:   9    -0.232309799117E+04    0.16908E-04   -0.21598E-05  2950   0.456E-03    0.138E-02
RMM:  10    -0.232309798770E+04    0.34749E-05   -0.13742E-05  2922   0.296E-03
  70 F= -.23444725E+04 E0= -.23444725E+04  d E =-.733408E-02  mag=     1.9994
       N       E                     dE             d eps       ncg     rms          rms(c)
DAV:   1    -0.232306105087E+04    0.36940E-01   -0.24585E+00  4504   0.154E+00    0.495E-01
RMM:   2    -0.232310639997E+04   -0.45349E-01   -0.43176E-01  6484   0.374E-01    0.768E-01
RMM:   3    -0.232310588524E+04    0.51473E-03   -0.39976E-02  6225   0.128E-01    0.503E-01
RMM:   4    -0.232310403618E+04    0.18491E-02   -0.45428E-03  5625   0.331E-02    0.266E-01
RMM:   5    -0.232310353548E+04    0.50070E-03   -0.94696E-04  4544   0.172E-02    0.173E-01
RMM:   6    -0.232310317667E+04    0.35881E-03   -0.70229E-04  4920   0.175E-02    0.526E-02
RMM:   7    -0.232310321526E+04   -0.38590E-04   -0.20113E-04  3739   0.126E-02    0.564E-02
RMM:   8    -0.232310316968E+04    0.45587E-04   -0.66248E-05  3042   0.578E-03    0.181E-02
RMM:   9    -0.232310316463E+04    0.50497E-05   -0.10108E-05  2911   0.373E-03
  71 F= -.23444783E+04 E0= -.23444783E+04  d E =-.578460E-02  mag=     1.9993
       N       E                     dE             d eps       ncg     rms          rms(c)
DAV:   1    -0.232307394077E+04    0.29229E-01   -0.17601E+00  4504   0.131E+00    0.421E-01
RMM:   2    -0.232310666900E+04   -0.32728E-01   -0.30945E-01  6471   0.317E-01    0.665E-01
RMM:   3    -0.232310598934E+04    0.67966E-03   -0.28629E-02  6176   0.109E-01    0.420E-01
RMM:   4    -0.232310473299E+04    0.12564E-02   -0.32641E-03  5499   0.281E-02    0.229E-01
RMM:   5    -0.232310434963E+04    0.38335E-03   -0.68836E-04  4146   0.149E-02    0.146E-01
RMM:   6    -0.232310409254E+04    0.25709E-03   -0.51074E-04  4777   0.152E-02    0.400E-02
RMM:   7    -0.232310411098E+04   -0.18431E-04   -0.10962E-04  3414   0.104E-02    0.370E-02
RMM:   8    -0.232310409480E+04    0.16175E-04   -0.40152E-05  2999   0.495E-03    0.185E-02
RMM:   9    -0.232310409075E+04    0.40542E-05   -0.77194E-06  2887   0.334E-03
  72 F= -.23444798E+04 E0= -.23444797E+04  d E =-.724622E-02  mag=     1.9991
       N       E                     dE             d eps       ncg     rms          rms(c)
DAV:   1    -0.232305288865E+04    0.51206E-01   -0.32152E+00  4504   0.177E+00    0.579E-01
RMM:   2    -0.232311416231E+04   -0.61274E-01   -0.57567E-01  6496   0.432E-01    0.938E-01
RMM:   3    -0.232311242738E+04    0.17349E-02   -0.54245E-02  6241   0.149E-01    0.575E-01
RMM:   4    -0.232311002337E+04    0.24040E-02   -0.60432E-03  5720   0.384E-02    0.304E-01
RMM:   5    -0.232310934591E+04    0.67746E-03   -0.13229E-03  4986   0.197E-02    0.199E-01
RMM:   6    -0.232310891671E+04    0.42920E-03   -0.92346E-04  4990   0.196E-02    0.821E-02
RMM:   7    -0.232310894708E+04   -0.30371E-04   -0.40294E-04  4233   0.152E-02    0.780E-02
RMM:   8    -0.232310885544E+04    0.91646E-04   -0.90362E-05  3141   0.668E-03    0.180E-02
RMM:   9    -0.232310885107E+04    0.43629E-05   -0.14662E-05  2955   0.404E-03
  73 F= -.23444851E+04 E0= -.23444851E+04  d E =-.533961E-02  mag=     1.9989
       N       E                     dE             d eps       ncg     rms          rms(c)
DAV:   1    -0.232309915185E+04    0.97036E-02   -0.56478E-01  4560   0.742E-01    0.245E-01
RMM:   2    -0.232311004792E+04   -0.10896E-01   -0.10115E-01  6474   0.181E-01    0.404E-01
RMM:   3    -0.232310958115E+04    0.46677E-03   -0.94985E-03  5884   0.628E-02    0.239E-01
[...]
RMM:   6    -0.232330205826E+04    0.32637E-02   -0.50414E-03  5823   0.368E-02    0.370E-01
RMM:   7    -0.232330363812E+04   -0.15799E-02   -0.67065E-03  5754   0.404E-02    0.538E-01
RMM:   8    -0.232330047994E+04    0.31582E-02   -0.29018E-03  5855   0.287E-02    0.722E-02
RMM:   9    -0.232330040527E+04    0.74674E-04   -0.33628E-04  3972   0.104E-02    0.638E-02
RMM:  10    -0.232330035186E+04    0.53412E-04   -0.11614E-04  3039   0.775E-03    0.258E-02
RMM:  11    -0.232330034544E+04    0.64213E-05   -0.47267E-05  3007   0.474E-03
 133 F= -.23446848E+04 E0= -.23446848E+04  d E =-.159580E-01  mag=     2.0000
       N       E                     dE             d eps       ncg     rms          rms(c)
DAV:   1    -0.232323987909E+04    0.60473E-01   -0.28284E+00  4592   0.155E+00    0.553E-01
RMM:   2    -0.232331363862E+04   -0.73760E-01   -0.72247E-01  6524   0.436E-01    0.800E-01
RMM:   3    -0.232331498835E+04   -0.13497E-02   -0.80529E-02  6259   0.164E-01    0.509E-01
RMM:   4    -0.232331231906E+04    0.26693E-02   -0.76276E-03  5607   0.381E-02    0.191E-01
RMM:   5    -0.232331205523E+04    0.26382E-03   -0.88391E-04  4538   0.156E-02    0.157E-01
RMM:   6    -0.232331167230E+04    0.38293E-03   -0.65717E-04  5049   0.155E-02    0.625E-02
RMM:   7    -0.232331169333E+04   -0.21029E-04   -0.37261E-04  4468   0.126E-02    0.700E-02
RMM:   8    -0.232331164596E+04    0.47363E-04   -0.64559E-05  3061   0.628E-03    0.283E-02
RMM:   9    -0.232331163490E+04    0.11062E-04   -0.12369E-05  2902   0.413E-03    0.135E-02
RMM:  10    -0.232331163225E+04    0.26526E-05   -0.13610E-05  2891   0.258E-03
 134 F= -.23446954E+04 E0= -.23446954E+04  d E =-.106184E-01  mag=     2.0000
       N       E                     dE             d eps       ncg     rms          rms(c)
DAV:   1    -0.232322022359E+04    0.91411E-01   -0.38545E+00  4504   0.181E+00    0.645E-01
RMM:   2    -0.232332055119E+04   -0.10033E+00   -0.98506E-01  6503   0.509E-01    0.922E-01
RMM:   3    -0.232332257504E+04   -0.20239E-02   -0.11030E-01  6266   0.193E-01    0.594E-01
RMM:   4    -0.232331895620E+04    0.36188E-02   -0.10462E-02  5721   0.446E-02    0.227E-01
RMM:   5    -0.232331856627E+04    0.38993E-03   -0.12177E-03  4884   0.182E-02    0.183E-01
RMM:   6    -0.232331804883E+04    0.51744E-03   -0.86103E-04  5148   0.175E-02    0.757E-02
RMM:   7    -0.232331813015E+04   -0.81326E-04   -0.54429E-04  4904   0.152E-02    0.110E-01
RMM:   8    -0.232331800115E+04    0.12901E-03   -0.11158E-04  3122   0.726E-03    0.243E-02
RMM:   9    -0.232331799049E+04    0.10654E-04   -0.20145E-05  2939   0.453E-03    0.157E-02
RMM:  10    -0.232331798671E+04    0.37780E-05   -0.16550E-05  2902   0.292E-03
 135 F= -.23447010E+04 E0= -.23447010E+04  d E =-.162008E-01  mag=     2.0000
       N       E                     dE             d eps       ncg     rms          rms(c)
DAV:   1    -0.232331090902E+04    0.70815E-02   -0.30183E-01  4720   0.505E-01    0.178E-01
RMM:   2    -0.232331857216E+04   -0.76631E-02   -0.76062E-02  6479   0.140E-01    0.241E-01
RMM:   3    -0.232331890360E+04   -0.33144E-03   -0.85795E-03  5397   0.539E-02    0.173E-01
RMM:   4    -0.232331858393E+04    0.31967E-03   -0.78602E-04  3394   0.129E-02    0.583E-02
RMM:   5    -0.232331856267E+04    0.21260E-04   -0.94312E-05  3049   0.635E-03    0.517E-02
RMM:   6    -0.232331852170E+04    0.40975E-04   -0.78543E-05  3149   0.642E-03    0.200E-02
RMM:   7    -0.232331852639E+04   -0.46931E-05   -0.40648E-05  3037   0.524E-03
 136 F= -.23447013E+04 E0= -.23447013E+04  d E =-.165264E-01  mag=     2.0000
       N       E                     dE             d eps       ncg     rms          rms(c)
DAV:   1    -0.232323236189E+04    0.86160E-01   -0.37656E+00  4504   0.178E+00    0.619E-01
RMM:   2    -0.232332696258E+04   -0.94601E-01   -0.96325E-01  6559   0.491E-01    0.726E-01
RMM:   3    -0.232333406666E+04   -0.71041E-02   -0.11322E-01  6282   0.197E-01    0.628E-01
RMM:   4    -0.232333000353E+04    0.40631E-02   -0.10405E-02  5830   0.451E-02    0.242E-01
RMM:   5    -0.232332953917E+04    0.46436E-03   -0.12664E-03  4745   0.175E-02    0.180E-01
RMM:   6    -0.232332909406E+04    0.44510E-03   -0.75948E-04  4879   0.162E-02    0.970E-02
RMM:   7    -0.232332932461E+04   -0.23055E-03   -0.72057E-04  4912   0.154E-02    0.174E-01
RMM:   8    -0.232332898516E+04    0.33946E-03   -0.25272E-04  3880   0.971E-03    0.227E-02
RMM:   9    -0.232332897605E+04    0.91067E-05   -0.32272E-05  2986   0.494E-03
 137 F= -.23447109E+04 E0= -.23447109E+04  d E =-.960683E-02  mag=     2.0000
       N       E                     dE             d eps       ncg     rms          rms(c)
DAV:   1    -0.232299320133E+04    0.33578E+00   -0.13289E+01  4504   0.334E+00    0.118E+00
RMM:   2    -0.232333744470E+04   -0.34424E+00   -0.34713E+00  6551   0.938E-01    0.147E+00
RMM:   3    -0.232335447627E+04   -0.17032E-01   -0.40403E-01  6307   0.367E-01    0.112E+00
RMM:   4    -0.232334203385E+04    0.12442E-01   -0.37552E-02  6177   0.836E-02    0.495E-01
RMM:   5    -0.232333998696E+04    0.20469E-02   -0.48415E-03  5601   0.334E-02    0.343E-01
RMM:   6    -0.232333856936E+04    0.14176E-02   -0.25424E-03  5471   0.281E-02    0.222E-01
RMM:   7    -0.232333906460E+04   -0.49524E-03   -0.24191E-03  5525   0.268E-02    0.308E-01
RMM:   8    -0.232333797408E+04    0.10905E-02   -0.98926E-04  5455   0.178E-02    0.436E-02
RMM:   9    -0.232333794312E+04    0.30967E-04   -0.10172E-04  3280   0.796E-03    0.370E-02
RMM:  10    -0.232333792176E+04    0.21355E-04   -0.53190E-05  2953   0.554E-03    0.136E-02
RMM:  11    -0.232333791934E+04    0.24182E-05   -0.18811E-05  2955   0.359E-03
 138 F= -.23447183E+04 E0= -.23447183E+04  d E =-.169508E-01  mag=     2.0000
       N       E                     dE             d eps       ncg     rms          rms(c)
DAV:   1    -0.232323227213E+04    0.10565E+00   -0.43731E+00  4504   0.187E+00    0.639E-01
RMM:   2    -0.232334148944E+04   -0.10922E+00   -0.11495E+00  6551   0.516E-01    0.572E-01
RMM:   3    -0.232335498324E+04   -0.13494E-01   -0.13892E-01  6227   0.220E-01    0.675E-01
RMM:   4    -0.232335017643E+04    0.48068E-02   -0.12012E-02  5919   0.477E-02    0.245E-01
RMM:   5    -0.232334973235E+04    0.44407E-03   -0.13338E-03  4456   0.170E-02    0.184E-01
RMM:   6    -0.232334933358E+04    0.39877E-03   -0.77690E-04  4467   0.155E-02    0.112E-01
RMM:   7    -0.232334920047E+04    0.13311E-03   -0.69992E-04  5237   0.142E-02    0.733E-02
RMM:   8    -0.232334920397E+04   -0.34968E-05   -0.17274E-04  3226   0.952E-03    0.741E-02
RMM:   9    -0.232334914682E+04    0.57149E-04   -0.49614E-05  3104   0.530E-03    0.270E-02
RMM:  10    -0.232334913449E+04    0.12329E-04   -0.18995E-05  2903   0.403E-03    0.146E-02
RMM:  11    -0.232334913161E+04    0.28842E-05   -0.14115E-05  2796   0.260E-03
 139 F= -.23447283E+04 E0= -.23447283E+04  d E =-.100391E-01  mag=     2.0000
       N       E                     dE             d eps       ncg     rms          rms(c)
DAV:   1    -0.232314258236E+04    0.20655E+00   -0.80417E+00  4504   0.253E+00    0.873E-01
RMM:   2    -0.232334543658E+04   -0.20285E+00   -0.21301E+00  6559   0.704E-01    0.804E-01
RMM:   3    -0.232336920552E+04   -0.23769E-01   -0.25842E-01  6281   0.298E-01    0.904E-01
RMM:   4    -0.232336057876E+04    0.86268E-02   -0.22136E-02  6159   0.645E-02    0.344E-01
RMM:   5    -0.232335970255E+04    0.87620E-03   -0.24880E-03  4991   0.228E-02    0.253E-01
RMM:   6    -0.232335895555E+04    0.74701E-03   -0.14072E-03  4948   0.202E-02    0.153E-01
RMM:   7    -0.232335865880E+04    0.29674E-03   -0.12710E-03  5458   0.186E-02    0.810E-02
RMM:   8    -0.232335872295E+04   -0.64148E-04   -0.31988E-04  3669   0.123E-02    0.111E-01
RMM:   9    -0.232335859868E+04    0.12427E-03   -0.99908E-05  3269   0.682E-03    0.395E-02
RMM:  10    -0.232335857319E+04    0.25489E-04   -0.36866E-05  2926   0.531E-03    0.212E-02
RMM:  11    -0.232335856683E+04    0.63593E-05   -0.27921E-05  2910   0.348E-03
 140 F= -.23447361E+04 E0= -.23447361E+04  d E =-.178462E-01  mag=     2.0000
       N       E                     dE             d eps       ncg     rms          rms(c)
DAV:   1    -0.232247228147E+04    0.88629E+00   -0.32073E+01  4504   0.507E+00    0.180E+00
RMM:   2    -0.232332773010E+04   -0.85545E+00   -0.88550E+00  6597   0.144E+00    0.191E+00
RMM:   3    -0.232339595357E+04   -0.68223E-01   -0.10483E+00  6293   0.595E-01    0.172E+00
RMM:   4    -0.232336570674E+04    0.30247E-01   -0.90902E-02  6422   0.128E-01    0.762E-01
RMM:   5    -0.232336144853E+04    0.42582E-02   -0.10370E-02  5766   0.461E-02    0.539E-01
RMM:   6    -0.232335786133E+04    0.35872E-02   -0.56784E-03  5682   0.389E-02    0.295E-01
RMM:   7    -0.232335706410E+04    0.79723E-03   -0.51175E-03  5670   0.355E-02    0.225E-01
RMM:   8    -0.232335706574E+04   -0.16378E-05   -0.15764E-03  5164   0.243E-02    0.222E-01
RMM:   9    -0.232335658601E+04    0.47973E-03   -0.48791E-04  4547   0.121E-02    0.881E-02
RMM:  10    -0.232335647300E+04    0.11301E-03   -0.15816E-04  3085   0.932E-03    0.439E-02
RMM:  11    -0.232335644709E+04    0.25918E-04   -0.11361E-04  3143   0.636E-03    0.102E-02
RMM:  12    -0.232335644581E+04    0.12775E-05   -0.24237E-05  2966   0.424E-03
 141 F= -.23447306E+04 E0= -.23447306E+04  d E =-.123460E-01  mag=     2.0000
       N       E                     dE             d eps       ncg     rms          rms(c)
DAV:   1    -0.232292721071E+04    0.42924E+00   -0.16045E+01  4504   0.358E+00    0.122E+00
RMM:   2    -0.232332471631E+04   -0.39751E+00   -0.42686E+00  6598   0.991E-01    0.758E-01
RMM:   3    -0.232337562002E+04   -0.50904E-01   -0.49720E-01  6230   0.392E-01    0.113E+00
RMM:   4    -0.232336452815E+04    0.11092E-01   -0.43231E-02  6490   0.848E-02    0.447E-01
RMM:   5    -0.232336238479E+04    0.21434E-02   -0.38281E-03  5569   0.310E-02    0.280E-01
RMM:   6    -0.232336216391E+04    0.22088E-03   -0.31508E-03  5865   0.274E-02    0.314E-01
RMM:   7    -0.232336131252E+04    0.85138E-03   -0.15763E-03  5245   0.214E-02    0.172E-01
RMM:   8    -0.232336119759E+04    0.11493E-03   -0.87171E-04  5182   0.153E-02    0.137E-01
RMM:   9    -0.232336099105E+04    0.20654E-03   -0.30663E-04  3501   0.102E-02    0.549E-02
RMM:  10    -0.232336094464E+04    0.46418E-04   -0.80679E-05  2982   0.709E-03    0.251E-02
RMM:  11    -0.232336093622E+04    0.84130E-05   -0.33633E-05  2978   0.397E-03
 142 F= -.23447375E+04 E0= -.23447375E+04  d E =-.192407E-01  mag=     2.0000
       N       E                     dE             d eps       ncg     rms          rms(c)
DAV:   1    -0.232322501639E+04    0.13593E+00   -0.55294E+00  4504   0.210E+00    0.730E-01
RMM:   2    -0.232336552816E+04   -0.14051E+00   -0.14655E+00  6513   0.572E-01    0.734E-01
RMM:   3    -0.232338147225E+04   -0.15944E-01   -0.18051E-01  6192   0.256E-01    0.764E-01
RMM:   4    -0.232337509230E+04    0.63800E-02   -0.15072E-02  5899   0.539E-02    0.256E-01
RMM:   5    -0.232337448964E+04    0.60265E-03   -0.15976E-03  4737   0.188E-02    0.185E-01
RMM:   6    -0.232337419902E+04    0.29062E-03   -0.94297E-04  4910   0.166E-02    0.148E-01
RMM:   7    -0.232337410046E+04    0.98559E-04   -0.79443E-04  5194   0.150E-02    0.141E-01
RMM:   8    -0.232337391738E+04    0.18309E-03   -0.28990E-04  3597   0.103E-02    0.542E-02
RMM:   9    -0.232337389220E+04    0.25176E-04   -0.63789E-05  3165   0.595E-03    0.296E-02
RMM:  10    -0.232337388012E+04    0.12078E-04   -0.23205E-05  2913   0.461E-03    0.161E-02
RMM:  11    -0.232337387751E+04    0.26139E-05   -0.16362E-05  2864   0.279E-03
 143 F= -.23447489E+04 E0= -.23447489E+04  d E =-.113724E-01  mag=     2.0000
       N       E                     dE             d eps       ncg     rms          rms(c)
DAV:   1    -0.232267266632E+04    0.70121E+00   -0.25994E+01  4504   0.456E+00    0.163E+00
RMM:   2    -0.232336846409E+04   -0.69580E+00   -0.71617E+00  6557   0.128E+00    0.183E+00
RMM:   3    -0.232342234751E+04   -0.53883E-01   -0.86859E-01  6217   0.551E-01    0.154E+00
RMM:   4    -0.232339672632E+04    0.25621E-01   -0.72823E-02  6253   0.115E-01    0.615E-01
RMM:   5    -0.232339394029E+04    0.27860E-02   -0.77970E-03  5708   0.405E-02    0.460E-01
RMM:   6    -0.232339140218E+04    0.25381E-02   -0.44868E-03  5696   0.344E-02    0.276E-01
RMM:   7    -0.232339156829E+04   -0.16611E-03   -0.40786E-03  5864   0.311E-02    0.350E-01
RMM:   8    -0.232339038469E+04    0.11836E-02   -0.14509E-03  5430   0.212E-02    0.107E-01
RMM:   9    -0.232339031506E+04    0.69630E-04   -0.37250E-04  4141   0.104E-02    0.740E-02
RMM:  10    -0.232339024840E+04    0.66660E-04   -0.11500E-04  3006   0.829E-03    0.381E-02
RMM:  11    -0.232339023376E+04    0.14635E-04   -0.83635E-05  3014   0.537E-03    0.824E-03
RMM:  12    -0.232339023484E+04   -0.10746E-05   -0.17296E-05  2946   0.354E-03
 144 F= -.23447618E+04 E0= -.23447618E+04  d E =-.242667E-01  mag=     2.0000
       N       E                     dE             d eps       ncg     rms          rms(c)
DAV:   1    -0.232326135936E+04    0.12887E+00   -0.56391E+00  4504   0.212E+00    0.748E-01
RMM:   2    -0.232340037506E+04   -0.13902E+00   -0.14329E+00  6477   0.580E-01    0.829E-01
RMM:   3    -0.232341361524E+04   -0.13240E-01   -0.17855E-01  6144   0.255E-01    0.784E-01
RMM:   4    -0.232340695544E+04    0.66598E-02   -0.14810E-02  5893   0.548E-02    0.241E-01
RMM:   5    -0.232340659261E+04    0.36283E-03   -0.17852E-03  5221   0.201E-02    0.219E-01
RMM:   6    -0.232340611577E+04    0.47684E-03   -0.10150E-03  5247   0.173E-02    0.157E-01
RMM:   7    -0.232340613774E+04   -0.21976E-04   -0.86408E-04  4925   0.153E-02    0.172E-01
RMM:   8    -0.232340580951E+04    0.32823E-03   -0.38006E-04  4356   0.114E-02    0.290E-02
RMM:   9    -0.232340580619E+04    0.33208E-05   -0.55868E-05  3115   0.565E-03
 145 F= -.23447758E+04 E0= -.23447758E+04  d E =-.140033E-01  mag=     2.0000
       N       E                     dE             d eps       ncg     rms          rms(c)
DAV:   1    -0.232311606446E+04    0.28975E+00   -0.11544E+01  4504   0.305E+00    0.108E+00
RMM:   2    -0.232340467708E+04   -0.28861E+00   -0.29696E+00  6475   0.845E-01    0.121E+00
RMM:   3    -0.232342981724E+04   -0.25140E-01   -0.37528E-01  6156   0.370E-01    0.110E+00
RMM:   4    -0.232341686783E+04    0.12949E-01   -0.30848E-02  6102   0.786E-02    0.359E-01
RMM:   5    -0.232341601348E+04    0.85435E-03   -0.36644E-03  5580   0.285E-02    0.312E-01
RMM:   6    -0.232341497127E+04    0.10422E-02   -0.21278E-03  5636   0.247E-02    0.214E-01
RMM:   7    -0.232341516350E+04   -0.19223E-03   -0.17758E-03  5445   0.210E-02    0.267E-01
RMM:   8    -0.232341439559E+04    0.76791E-03   -0.80667E-04  5136   0.158E-02    0.431E-02
RMM:   9    -0.232341438809E+04    0.74976E-05   -0.13030E-04  3380   0.739E-03    0.369E-02
RMM:  10    -0.232341437170E+04    0.16391E-04   -0.41976E-05  2928   0.573E-03    0.173E-02
RMM:  11    -0.232341436979E+04    0.19083E-05   -0.25293E-05  2955   0.356E-03
 146 F= -.23447821E+04 E0= -.23447821E+04  d E =-.203562E-01  mag=     2.0000
       N       E                     dE             d eps       ncg     rms          rms(c)
DAV:   1    -0.232330020106E+04    0.11417E+00   -0.46050E+00  4528   0.190E+00    0.657E-01
RMM:   2    -0.232341517369E+04   -0.11497E+00   -0.12260E+00  6548   0.530E-01    0.512E-01
RMM:   3    -0.232343082723E+04   -0.15654E-01   -0.15093E-01  6160   0.230E-01    0.716E-01
RMM:   4    -0.232342564507E+04    0.51822E-02   -0.12581E-02  5633   0.494E-02    0.215E-01
RMM:   5    -0.232342522387E+04    0.42120E-03   -0.12194E-03  4556   0.166E-02    0.166E-01
RMM:   6    -0.232342504323E+04    0.18064E-03   -0.68893E-04  4684   0.143E-02    0.147E-01
RMM:   7    -0.232342493836E+04    0.10487E-03   -0.57137E-04  4998   0.125E-02    0.131E-01
RMM:   8    -0.232342476476E+04    0.17360E-03   -0.27785E-04  3411   0.100E-02    0.399E-02
RMM:   9    -0.232342475174E+04    0.13017E-04   -0.52142E-05  3114   0.551E-03    0.220E-02
RMM:  10    -0.232342474472E+04    0.70223E-05   -0.17468E-05  2902   0.427E-03
 147 F= -.23447914E+04 E0= -.23447914E+04  d E =-.929326E-02  mag=     2.0000
       N       E                     dE             d eps       ncg     rms          rms(c)
DAV:   1    -0.232267844822E+04    0.74630E+00   -0.27392E+01  4504   0.465E+00    0.165E+00
RMM:   2    -0.232339159816E+04   -0.71315E+00   -0.75538E+00  6598   0.134E+00    0.143E+00
RMM:   3    -0.232347585615E+04   -0.84258E-01   -0.95310E-01  6244   0.567E-01    0.173E+00
RMM:   4    -0.232344663128E+04    0.29225E-01   -0.77601E-02  6366   0.121E-01    0.621E-01
RMM:   5    -0.232344356329E+04    0.30680E-02   -0.84108E-03  5765   0.405E-02    0.457E-01
RMM:   6    -0.232344135937E+04    0.22039E-02   -0.43107E-03  5627   0.331E-02    0.308E-01
RMM:   7    -0.232344160207E+04   -0.24270E-03   -0.36564E-03  5952   0.284E-02    0.395E-01
RMM:   8    -0.232344005105E+04    0.15510E-02   -0.19572E-03  5446   0.234E-02    0.115E-01
RMM:   9    -0.232343995924E+04    0.91806E-04   -0.56057E-04  4554   0.128E-02    0.692E-02
RMM:  10    -0.232343989131E+04    0.67931E-04   -0.12185E-04  3071   0.864E-03    0.345E-02
RMM:  11    -0.232343987548E+04    0.15827E-04   -0.73002E-05  2998   0.543E-03    0.995E-03
RMM:  12    -0.232343987513E+04    0.35096E-06   -0.19755E-05  2954   0.387E-03
 148 F= -.23448040E+04 E0= -.23448040E+04  d E =-.218745E-01  mag=     2.0000
       N       E                     dE             d eps       ncg     rms          rms(c)
DAV:   1    -0.232325080951E+04    0.18907E+00   -0.71382E+00  4504   0.242E+00    0.852E-01
RMM:   2    -0.232343977677E+04   -0.18897E+00   -0.20546E+00  6561   0.694E-01    0.415E-01
RMM:   3    -0.232345990945E+04   -0.20133E-01   -0.24379E-01  5988   0.294E-01    0.320E-01
RMM:   4    -0.232346126752E+04   -0.13581E-02   -0.19347E-02  5774   0.526E-02    0.346E-01
RMM:   5    -0.232346023586E+04    0.10317E-02   -0.14210E-03  4602   0.196E-02    0.197E-01
RMM:   6    -0.232345992121E+04    0.31465E-03   -0.11929E-03  5418   0.173E-02    0.170E-01
RMM:   7    -0.232345963706E+04    0.28415E-03   -0.85089E-04  4959   0.162E-02    0.919E-02
RMM:   8    -0.232345961748E+04    0.19576E-04   -0.29357E-04  3980   0.100E-02    0.948E-02
RMM:   9    -0.232345953236E+04    0.85123E-04   -0.77469E-05  3004   0.690E-03    0.307E-02
RMM:  10    -0.232345951253E+04    0.19824E-04   -0.35151E-05  2921   0.449E-03    0.162E-02
RMM:  11    -0.232345950882E+04    0.37141E-05   -0.16804E-05  2949   0.292E-03
 149 F= -.23448225E+04 E0= -.23448225E+04  d E =-.184788E-01  mag=     2.0000
       N       E                     dE             d eps       ncg     rms          rms(c)
DAV:   1    -0.232323893582E+04    0.22058E+00   -0.78604E+00  4504   0.253E+00    0.896E-01
RMM:   2    -0.232344752096E+04   -0.20859E+00   -0.22685E+00  6572   0.723E-01    0.434E-01
RMM:   3    -0.232346893234E+04   -0.21411E-01   -0.26175E-01  6022   0.292E-01    0.327E-01
RMM:   4    -0.232347032840E+04   -0.13961E-02   -0.21041E-02  5818   0.542E-02    0.341E-01
RMM:   5    -0.232346941245E+04    0.91595E-03   -0.14620E-03  4698   0.195E-02    0.216E-01
RMM:   6    -0.232346904245E+04    0.37001E-03   -0.12896E-03  5472   0.180E-02    0.181E-01
RMM:   7    -0.232346871731E+04    0.32513E-03   -0.95748E-04  5020   0.170E-02    0.958E-02
RMM:   8    -0.232346866749E+04    0.49823E-04   -0.31991E-04  4142   0.104E-02    0.861E-02
RMM:   9    -0.232346860155E+04    0.65941E-04   -0.68626E-05  2979   0.678E-03    0.332E-02
RMM:  10    -0.232346857815E+04    0.23394E-04   -0.39918E-05  2929   0.457E-03    0.186E-02
RMM:  11    -0.232346857350E+04    0.46548E-05   -0.20023E-05  2963   0.306E-03
 150 F= -.23448303E+04 E0= -.23448303E+04  d E =-.263457E-01  mag=     2.0000
