       N       E                     dE             d eps       ncg     rms          rms(c)
DAV:   1     0.117995754182E+05    0.11800E+05   -0.82489E+05  4640   0.139E+03
DAV:   2    -0.133927345937E+04   -0.13139E+05   -0.12667E+05  5280   0.315E+02
DAV:   3    -0.249664510911E+04   -0.11574E+04   -0.11493E+04  5520   0.980E+01
DAV:   4    -0.251864255854E+04   -0.21997E+02   -0.21915E+02  5760   0.155E+01
DAV:   5    -0.251913286354E+04   -0.49031E+00   -0.48958E+00  5840   0.213E+00    0.171E+02
RMM:   6    -0.146898212591E+04    0.10502E+04   -0.18995E+03  4485   0.375E+01    0.722E+01
RMM:   7    -0.163674058774E+04   -0.16776E+03   -0.24862E+02  4930   0.128E+01    0.484E+01
RMM:   8    -0.169818960530E+04   -0.61449E+02   -0.39862E+01  4910   0.694E+00    0.356E+01
RMM:   9    -0.184373704928E+04   -0.14555E+03   -0.67834E+01  4631   0.821E+00    0.225E+01
RMM:  10    -0.200304726628E+04   -0.15931E+03   -0.70777E+01  4537   0.738E+00    0.156E+01
RMM:  11    -0.215802485334E+04   -0.15498E+03   -0.11081E+02  4503   0.749E+00    0.114E+01
RMM:  12    -0.228917259366E+04   -0.13115E+03   -0.13520E+02  4511   0.774E+00    0.511E+00
RMM:  13    -0.231022231847E+04   -0.21050E+02   -0.25710E+01  4569   0.486E+00    0.323E+00
RMM:  14    -0.231668698002E+04   -0.64647E+01   -0.93470E+00  4875   0.198E+00    0.213E+00
RMM:  15    -0.231803241675E+04   -0.13454E+01   -0.13553E+00  4911   0.116E+00    0.142E+00
RMM:  16    -0.231847144648E+04   -0.43903E+00   -0.32545E-01  4990   0.412E-01    0.793E-01
RMM:  17    -0.231882372221E+04   -0.35228E+00   -0.98556E-02  4961   0.296E-01    0.557E-01
RMM:  18    -0.231888238146E+04   -0.58659E-01   -0.40220E-02  4706   0.156E-01    0.305E-01
RMM:  19    -0.231891207869E+04   -0.29697E-01   -0.15974E-02  4587   0.117E-01    0.140E-01
RMM:  20    -0.231892056517E+04   -0.84865E-02   -0.38162E-03  4742   0.575E-02    0.908E-02
RMM:  21    -0.231892811078E+04   -0.75456E-02   -0.21041E-03  4508   0.401E-02    0.580E-02
RMM:  22    -0.231893561665E+04   -0.75059E-02   -0.20797E-03  4503   0.359E-02    0.418E-02
RMM:  23    -0.231893933012E+04   -0.37135E-02   -0.11204E-03  4489   0.292E-02    0.256E-02
RMM:  24    -0.231894202932E+04   -0.26992E-02   -0.93435E-04  4178   0.213E-02    0.162E-02
RMM:  25    -0.231894280178E+04   -0.77246E-03   -0.31332E-04  4098   0.175E-02    0.888E-03
RMM:  26    -0.231894304847E+04   -0.24669E-03   -0.10828E-04  3755   0.806E-03    0.546E-03
RMM:  27    -0.231894314580E+04   -0.97331E-04   -0.28589E-05  3324   0.660E-03    0.522E-03
RMM:  28    -0.231894319613E+04   -0.50336E-04   -0.13792E-05  3053   0.337E-03    0.370E-03
RMM:  29    -0.231894324231E+04   -0.46177E-04   -0.13298E-05  3034   0.349E-03    0.175E-03
RMM:  30    -0.231894325219E+04   -0.98783E-05   -0.67352E-06  2833   0.288E-03
   1 F= -.23391347E+04 E0= -.23391347E+04  d E =-.101579E-12  mag=     2.0000
       N       E                     dE             d eps       ncg     rms          rms(c)
DAV:   1    -0.231893758961E+04    0.56527E-02   -0.19761E+00  4480   0.728E-01    0.271E-01
RMM:   2    -0.231893814839E+04   -0.55878E-03   -0.11564E-02  3885   0.464E-02    0.156E-01
RMM:   3    -0.231893778086E+04    0.36753E-03   -0.11998E-03  4670   0.196E-02    0.755E-02
RMM:   4    -0.231893781231E+04   -0.31451E-04   -0.44010E-04  4098   0.937E-03    0.248E-02
RMM:   5    -0.231893781140E+04    0.91419E-06   -0.38206E-05  3011   0.603E-03
   2 F= -.23391290E+04 E0= -.23391290E+04  d E =-.215078E-12  mag=     2.0000
       N       E                     dE             d eps       ncg     rms          rms(c)
DAV:   1    -0.231893467345E+04    0.31389E-02   -0.78338E+00  4480   0.143E+00    0.553E-01
RMM:   2    -0.231893504311E+04   -0.36966E-03   -0.32679E-02  4125   0.847E-02    0.306E-01
RMM:   3    -0.231893398873E+04    0.10544E-02   -0.37734E-03  4867   0.345E-02    0.149E-01
RMM:   4    -0.231893410310E+04   -0.11437E-03   -0.15440E-03  4292   0.176E-02    0.507E-02
RMM:   5    -0.231893410120E+04    0.19037E-05   -0.12559E-04  3443   0.107E-02    0.270E-02
RMM:   6    -0.231893410613E+04   -0.49313E-05   -0.39392E-05  3231   0.363E-03
   3 F= -.23391257E+04 E0= -.23391257E+04  d E =-.324689E-14  mag=     2.0000
       N       E                     dE             d eps       ncg     rms          rms(c)
DAV:   1    -0.231894934834E+04   -0.15247E-01   -0.41674E+00  4800   0.111E+00    0.423E-01
RMM:   2    -0.231894912115E+04    0.22719E-03   -0.15518E-02  3955   0.606E-02    0.259E-01
RMM:   3    -0.231894849311E+04    0.62804E-03   -0.34357E-03  4711   0.286E-02    0.126E-01
RMM:   4    -0.231894853362E+04   -0.40506E-04   -0.90420E-04  4278   0.153E-02    0.574E-02
RMM:   5    -0.231894854328E+04   -0.96637E-05   -0.98689E-05  3317   0.779E-03
   4 F= -.23391399E+04 E0= -.23391399E+04  d E =-.944447E-16  mag=     2.0000
       N       E                     dE             d eps       ncg     rms          rms(c)
DAV:   1    -0.231889736652E+04    0.51167E-01   -0.85323E+00  4480   0.162E+00    0.633E-01
RMM:   2    -0.231889558632E+04    0.17802E-02   -0.28433E-02  4054   0.821E-02    0.381E-01
RMM:   3    -0.231889414382E+04    0.14425E-02   -0.94060E-03  4588   0.481E-02    0.160E-01
RMM:   4    -0.231889419082E+04   -0.47009E-04   -0.16668E-03  4597   0.240E-02    0.761E-02
RMM:   5    -0.231889421510E+04   -0.24278E-04   -0.16331E-04  3581   0.843E-03    0.351E-02
RMM:   6    -0.231889420563E+04    0.94745E-05   -0.30346E-05  3028   0.482E-03
   5 F= -.23390857E+04 E0= -.23390857E+04  d E =-.128506E-15  mag=     2.0000
       N       E                     dE             d eps       ncg     rms          rms(c)
DAV:   1    -0.231895233349E+04   -0.58118E-01   -0.41598E+00  4480   0.113E+00    0.424E-01
RMM:   2    -0.231895204035E+04    0.29314E-03   -0.16858E-02  4010   0.633E-02    0.247E-01
RMM:   3    -0.231895127137E+04    0.76898E-03   -0.28755E-03  4734   0.298E-02    0.121E-01
RMM:   4    -0.231895130139E+04   -0.30023E-04   -0.82464E-04  4310   0.137E-02    0.529E-02
RMM:   5    -0.231895128999E+04    0.11404E-04   -0.99768E-05  3402   0.878E-03    0.275E-02
RMM:   6    -0.231895129410E+04   -0.41130E-05   -0.27522E-05  2999   0.356E-03
   6 F= -.23391430E+04 E0= -.23391430E+04  d E =-.130909E-14  mag=     2.0000
       N       E                     dE             d eps       ncg     rms          rms(c)
DAV:   1    -0.231891221936E+04    0.39071E-01   -0.81279E+00  4480   0.158E+00    0.578E-01
RMM:   2    -0.231891174981E+04    0.46955E-03   -0.37997E-02  4170   0.923E-02    0.316E-01
RMM:   3    -0.231891017150E+04    0.15783E-02   -0.47808E-03  4937   0.415E-02    0.156E-01
RMM:   4    -0.231891016725E+04    0.42459E-05   -0.17535E-03  4370   0.181E-02    0.564E-02
RMM:   5    -0.231891015011E+04    0.17142E-04   -0.16683E-04  3629   0.124E-02    0.382E-02
RMM:   6    -0.231891014305E+04    0.70596E-05   -0.76599E-05  3404   0.483E-03
   7 F= -.23391013E+04 E0= -.23391013E+04  d E =-.283109E-16  mag=     2.0000
       N       E                     dE             d eps       ncg     rms          rms(c)
DAV:   1    -0.231893470865E+04   -0.24559E-01   -0.42595E+00  4480   0.111E+00    0.444E-01
RMM:   2    -0.231893312769E+04    0.15810E-02   -0.23027E-02  4178   0.701E-02    0.245E-01
RMM:   3    -0.231893208003E+04    0.10477E-02   -0.37490E-03  4801   0.327E-02    0.120E-01
RMM:   4    -0.231893205859E+04    0.21439E-04   -0.12775E-03  4265   0.143E-02    0.540E-02
RMM:   5    -0.231893203367E+04    0.24919E-04   -0.13213E-04  3476   0.103E-02    0.354E-02
RMM:   6    -0.231893203372E+04   -0.48807E-07   -0.68826E-05  3286   0.454E-03
   8 F= -.23391237E+04 E0= -.23391237E+04  d E =-.126162E-15  mag=     2.0000
       N       E                     dE             d eps       ncg     rms          rms(c)
DAV:   1    -0.231893478579E+04   -0.27521E-02   -0.83783E+00  4480   0.146E+00    0.606E-01
RMM:   2    -0.231892972758E+04    0.50582E-02   -0.30823E-02  4118   0.814E-02    0.337E-01
RMM:   3    -0.231892759926E+04    0.21283E-02   -0.96902E-03  5068   0.407E-02    0.121E-01
RMM:   4    -0.231892754005E+04    0.59208E-04   -0.11497E-03  4496   0.172E-02    0.635E-02
RMM:   5    -0.231892750788E+04    0.32175E-04   -0.16173E-04  3568   0.707E-03    0.378E-02
RMM:   6    -0.231892751194E+04   -0.40643E-05   -0.76684E-05  3245   0.528E-03
   9 F= -.23391187E+04 E0= -.23391187E+04  d E =-.257402E-16  mag=     2.0000
       N       E                     dE             d eps       ncg     rms          rms(c)
DAV:   1    -0.231891036036E+04    0.17148E-01   -0.42858E+00  4480   0.106E+00    0.439E-01
RMM:   2    -0.231890806242E+04    0.22979E-02   -0.14726E-02  3957   0.579E-02    0.253E-01
RMM:   3    -0.231890722273E+04    0.83968E-03   -0.53461E-03  4796   0.305E-02    0.110E-01
RMM:   4    -0.231890719922E+04    0.23509E-04   -0.61879E-04  4260   0.154E-02    0.710E-02
RMM:   5    -0.231890719050E+04    0.87214E-05   -0.17293E-04  3574   0.668E-03    0.309E-02
RMM:   6    -0.231890719561E+04   -0.51039E-05   -0.37740E-05  2991   0.461E-03
  10 F= -.23390986E+04 E0= -.23390986E+04  d E =-.112517E-15  mag=     2.0000
       N       E                     dE             d eps       ncg     rms          rms(c)
DAV:   1    -0.231894166551E+04   -0.34475E-01   -0.87121E+00  4480   0.156E+00    0.618E-01
RMM:   2    -0.231893693076E+04    0.47347E-02   -0.26783E-02  4009   0.799E-02    0.362E-01
RMM:   3    -0.231893532568E+04    0.16051E-02   -0.15149E-02  4667   0.449E-02    0.121E-01
RMM:   4    -0.231893507032E+04    0.25536E-03   -0.10193E-03  4187   0.269E-02    0.792E-02
RMM:   5    -0.231893506881E+04    0.15122E-05   -0.26921E-04  3837   0.734E-03    0.352E-02
RMM:   6    -0.231893507298E+04   -0.41699E-05   -0.41578E-05  3033   0.554E-03
  11 F= -.23391265E+04 E0= -.23391265E+04  d E =-.211696E-16  mag=     2.0000
       N       E                     dE             d eps       ncg     rms          rms(c)
DAV:   1    -0.231893675815E+04   -0.16893E-02   -0.42575E+00  4480   0.104E+00    0.417E-01
RMM:   2    -0.231893442828E+04    0.23299E-02   -0.13168E-02  3922   0.531E-02    0.234E-01
RMM:   3    -0.231893341373E+04    0.10146E-02   -0.58543E-03  4642   0.320E-02    0.675E-02
RMM:   4    -0.231893338778E+04    0.25946E-04   -0.49780E-04  4163   0.134E-02    0.376E-02
RMM:   5    -0.231893337220E+04    0.15583E-04   -0.53578E-05  3257   0.426E-03    0.182E-02
RMM:   6    -0.231893337276E+04   -0.55775E-06   -0.11073E-05  2845   0.276E-03
  12 F= -.23391251E+04 E0= -.23391251E+04  d E =-.143889E-15  mag=     2.0000
       N       E                     dE             d eps       ncg     rms          rms(c)
DAV:   1    -0.231893248533E+04    0.88687E-03   -0.83448E+00  4480   0.144E+00    0.580E-01
RMM:   2    -0.231892844224E+04    0.40431E-02   -0.25003E-02  4088   0.716E-02    0.307E-01
RMM:   3    -0.231892666200E+04    0.17802E-02   -0.88487E-03  4727   0.417E-02    0.860E-02
RMM:   4    -0.231892668047E+04   -0.18471E-04   -0.10203E-03  4667   0.159E-02    0.395E-02
RMM:   5    -0.231892666776E+04    0.12711E-04   -0.70344E-05  3325   0.535E-03    0.247E-02
RMM:   6    -0.231892666904E+04   -0.12864E-05   -0.51061E-05  3268   0.393E-03
  13 F= -.23391178E+04 E0= -.23391178E+04  d E =-.167564E-16  mag=     2.0000
       N       E                     dE             d eps       ncg     rms          rms(c)
DAV:   1    -0.231894303119E+04   -0.16363E-01   -0.23806E+00  4480   0.797E-01    0.321E-01
RMM:   2    -0.231894219517E+04    0.83601E-03   -0.92949E-03  3844   0.441E-02    0.177E-01
RMM:   3    -0.231894161225E+04    0.58292E-03   -0.19744E-03  4649   0.205E-02    0.628E-02
RMM:   4    -0.231894163732E+04   -0.25075E-04   -0.35905E-04  3962   0.922E-03    0.314E-02
RMM:   5    -0.231894163550E+04    0.18240E-05   -0.37442E-05  2895   0.429E-03
  14 F= -.23391332E+04 E0= -.23391332E+04  d E =-.245933E-16  mag=     2.0000
       N       E                     dE             d eps       ncg     rms          rms(c)
DAV:   1    -0.231893793403E+04    0.37033E-02   -0.11203E+00  4640   0.498E-01    0.314E-01
RMM:   2    -0.231893824103E+04   -0.30699E-03   -0.74774E-03  4154   0.390E-02    0.177E-01
RMM:   3    -0.231893796948E+04    0.27154E-03   -0.75456E-04  4104   0.166E-02    0.957E-02
RMM:   4    -0.231893794963E+04    0.19847E-04   -0.40372E-04  4084   0.888E-03    0.398E-02
RMM:   5    -0.231893794742E+04    0.22178E-05   -0.43338E-05  2937   0.482E-03
  15 F= -.23391292E+04 E0= -.23391292E+04  d E =-.657758E-16  mag=     2.0000
       N       E                     dE             d eps       ncg     rms          rms(c)
DAV:   1    -0.231893918266E+04   -0.12330E-02   -0.55768E-01  4480   0.353E-01    0.172E-01
RMM:   2    -0.231893925853E+04   -0.75876E-04   -0.19659E-03  3854   0.202E-02    0.101E-01
RMM:   3    -0.231893920566E+04    0.52879E-04   -0.23553E-04  3434   0.940E-03    0.563E-02
RMM:   4    -0.231893922436E+04   -0.18709E-04   -0.12410E-04  3375   0.514E-03    0.324E-02
RMM:   5    -0.231893922369E+04    0.67349E-06   -0.21110E-05  2707   0.363E-03
  16 F= -.23391308E+04 E0= -.23391308E+04  d E =-.303204E-16  mag=     2.0000
       N       E                     dE             d eps       ncg     rms          rms(c)
DAV:   1    -0.231894465668E+04   -0.54323E-02   -0.11176E+00  4480   0.505E-01    0.220E-01
RMM:   2    -0.231894475093E+04   -0.94244E-04   -0.28015E-03  3684   0.244E-02    0.138E-01
RMM:   3    -0.231894472014E+04    0.30788E-04   -0.69098E-04  4143   0.135E-02    0.552E-02
RMM:   4    -0.231894473253E+04   -0.12397E-04   -0.14402E-04  3202   0.603E-03    0.303E-02
RMM:   5    -0.231894473104E+04    0.14894E-05   -0.24737E-05  2740   0.355E-03
  17 F= -.23391360E+04 E0= -.23391360E+04  d E =-.397093E-16  mag=     2.0000
       N       E                     dE             d eps       ncg     rms          rms(c)
DAV:   1    -0.231893514718E+04    0.95854E-02   -0.54276E-01  4560   0.352E-01    0.250E-01
RMM:   2    -0.231893447764E+04    0.66955E-03   -0.46905E-03  3827   0.299E-02    0.131E-01
RMM:   3    -0.231893420488E+04    0.27276E-03   -0.78508E-04  4479   0.172E-02    0.466E-02
RMM:   4    -0.231893419973E+04    0.51476E-05   -0.12565E-04  3383   0.528E-03    0.195E-02
RMM:   5    -0.231893419811E+04    0.16187E-05   -0.18583E-05  2787   0.366E-03
  18 F= -.23391259E+04 E0= -.23391259E+04  d E =-.615330E-16  mag=     2.0000
       N       E                     dE             d eps       ncg     rms          rms(c)
DAV:   1    -0.231895097401E+04   -0.16774E-01   -0.10836E+00  4640   0.513E-01    0.410E-01
RMM:   2    -0.231894891354E+04    0.20605E-02   -0.10976E-02  4058   0.441E-02    0.213E-01
RMM:   3    -0.231894817578E+04    0.73775E-03   -0.20058E-03  4840   0.253E-02    0.844E-02
RMM:   4    -0.231894815457E+04    0.21215E-04   -0.33773E-04  4043   0.808E-03    0.400E-02
RMM:   5    -0.231894814808E+04    0.64912E-05   -0.60592E-05  3239   0.518E-03
  19 F= -.23391393E+04 E0= -.23391393E+04  d E =-.218498E-16  mag=     2.0000
       N       E                     dE             d eps       ncg     rms          rms(c)
DAV:   1    -0.231894009810E+04    0.80565E-02   -0.58216E-01  4480   0.405E-01    0.271E-01
RMM:   2    -0.231893969912E+04    0.39898E-03   -0.40579E-03  3759   0.293E-02    0.153E-01
RMM:   3    -0.231893941920E+04    0.27992E-03   -0.83720E-04  4473   0.154E-02    0.404E-02
RMM:   4    -0.231893943220E+04   -0.12996E-04   -0.10340E-04  3160   0.613E-03    0.177E-02
RMM:   5    -0.231893943152E+04    0.68093E-06   -0.13441E-05  2702   0.287E-03
  20 F= -.23391304E+04 E0= -.23391304E+04  d E =-.321085E-16  mag=     2.0000
       N       E                     dE             d eps       ncg     rms          rms(c)
DAV:   1    -0.231894264176E+04   -0.32096E-02   -0.12236E+00  4640   0.551E-01    0.378E-01
RMM:   2    -0.231894204246E+04    0.59930E-03   -0.56851E-03  3808   0.351E-02    0.216E-01
RMM:   3    -0.231894180683E+04    0.23564E-03   -0.14207E-03  4621   0.176E-02    0.603E-02
RMM:   4    -0.231894181306E+04   -0.62333E-05   -0.15872E-04  3562   0.761E-03    0.300E-02
RMM:   5    -0.231894181212E+04    0.93784E-06   -0.34511E-05  2866   0.354E-03
  21 F= -.23391336E+04 E0= -.23391336E+04  d E =-.315924E-16  mag=     2.0000
       N       E                     dE             d eps       ncg     rms          rms(c)
DAV:   1    -0.231892269232E+04    0.19121E-01   -0.61033E-01  4880   0.391E-01    0.257E-01
RMM:   2    -0.231892235514E+04    0.33718E-03   -0.29379E-03  3757   0.258E-02    0.146E-01
RMM:   3    -0.231892227202E+04    0.83121E-04   -0.59111E-04  4184   0.120E-02    0.448E-02
RMM:   4    -0.231892226977E+04    0.22521E-05   -0.86808E-05  3392   0.589E-03
  22 F= -.23391141E+04 E0= -.23391141E+04  d E =-.316339E-16  mag=     2.0000
       N       E                     dE             d eps       ncg     rms          rms(c)
DAV:   1    -0.231895049907E+04   -0.28227E-01   -0.12898E+00  4960   0.583E-01    0.526E-01
RMM:   2    -0.231894671926E+04    0.37798E-02   -0.14729E-02  4109   0.534E-02    0.275E-01
RMM:   3    -0.231894603991E+04    0.67935E-03   -0.29810E-03  4573   0.318E-02    0.108E-01
RMM:   4    -0.231894597540E+04    0.64510E-04   -0.57987E-04  4479   0.111E-02    0.399E-02
RMM:   5    -0.231894596374E+04    0.11658E-04   -0.72528E-05  3343   0.577E-03    0.151E-02
RMM:   6    -0.231894596344E+04    0.29255E-06   -0.12584E-05  2878   0.286E-03
  23 F= -.23391370E+04 E0= -.23391370E+04  d E =-.208001E-16  mag=     2.0000
       N       E                     dE             d eps       ncg     rms          rms(c)
DAV:   1    -0.231894277616E+04    0.31876E-02   -0.62084E-01  4880   0.389E-01    0.260E-01
RMM:   2    -0.231894261650E+04    0.15966E-03   -0.20785E-03  3740   0.227E-02    0.153E-01
RMM:   3    -0.231894256624E+04    0.50258E-04   -0.61800E-04  4179   0.118E-02    0.415E-02
RMM:   4    -0.231894256691E+04   -0.67240E-06   -0.77990E-05  3312   0.589E-03
  24 F= -.23391337E+04 E0= -.23391337E+04  d E =-.195575E-16  mag=     2.0000
       N       E                     dE             d eps       ncg     rms          rms(c)
DAV:   1    -0.231893563808E+04    0.69282E-02   -0.12483E+00  4800   0.552E-01    0.445E-01
RMM:   2    -0.231893375509E+04    0.18830E-02   -0.92925E-03  3873   0.445E-02    0.239E-01
RMM:   3    -0.231893336862E+04    0.38648E-03   -0.20756E-03  4598   0.223E-02    0.783E-02
RMM:   4    -0.231893333678E+04    0.31836E-04   -0.26354E-04  4084   0.894E-03    0.287E-02
RMM:   5    -0.231893333682E+04   -0.38519E-07   -0.35221E-05  2976   0.405E-03
  25 F= -.23391251E+04 E0= -.23391251E+04  d E =-.370979E-16  mag=     2.0000
       N       E                     dE             d eps       ncg     rms          rms(c)
DAV:   1    -0.231894005947E+04   -0.67227E-02   -0.62700E-01  4800   0.412E-01    0.326E-01
RMM:   2    -0.231893894531E+04    0.11142E-02   -0.57354E-03  3936   0.325E-02    0.170E-01
RMM:   3    -0.231893876679E+04    0.17853E-03   -0.10917E-03  4468   0.178E-02    0.659E-02
RMM:   4    -0.231893874908E+04    0.17706E-04   -0.17548E-04  3762   0.672E-03    0.249E-02
RMM:   5    -0.231893875033E+04   -0.12536E-05   -0.23312E-05  2835   0.379E-03
  26 F= -.23391298E+04 E0= -.23391298E+04  d E =-.207116E-16  mag=     2.0000
       N       E                     dE             d eps       ncg     rms          rms(c)
DAV:   1    -0.231894189717E+04   -0.31481E-02   -0.12460E+00  4720   0.501E-01    0.446E-01
RMM:   2    -0.231894021110E+04    0.16861E-02   -0.84441E-03  3982   0.393E-02    0.244E-01
RMM:   3    -0.231893980018E+04    0.41092E-03   -0.20295E-03  4615   0.219E-02    0.723E-02
RMM:   4    -0.231893978146E+04    0.18718E-04   -0.23267E-04  3862   0.853E-03    0.293E-02
RMM:   5    -0.231893978065E+04    0.80907E-06   -0.34647E-05  2961   0.421E-03
  27 F= -.23391316E+04 E0= -.23391316E+04  d E =-.298284E-16  mag=     2.0000
       N       E                     dE             d eps       ncg     rms          rms(c)
DAV:   1    -0.231893001662E+04    0.97648E-02   -0.67592E-01  5120   0.391E-01    0.444E-01
RMM:   2    -0.231892698219E+04    0.30344E-02   -0.10884E-02  4166   0.417E-02    0.225E-01
RMM:   3    -0.231892643456E+04    0.54763E-03   -0.21453E-03  4454   0.257E-02    0.874E-02
RMM:   4    -0.231892637243E+04    0.62125E-04   -0.39259E-04  4321   0.913E-03    0.314E-02
RMM:   5    -0.231892636501E+04    0.74242E-05   -0.47301E-05  3107   0.478E-03
  28 F= -.23391173E+04 E0= -.23391173E+04  d E =-.188164E-16  mag=     2.0000
       N       E                     dE             d eps       ncg     rms          rms(c)
DAV:   1    -0.231894377418E+04   -0.17402E-01   -0.13153E+00  4960   0.519E-01    0.582E-01
RMM:   2    -0.231893866488E+04    0.51093E-02   -0.18688E-02  4242   0.562E-02    0.299E-01
RMM:   3    -0.231893777183E+04    0.89305E-03   -0.33260E-03  4720   0.305E-02    0.123E-01
RMM:   4    -0.231893767717E+04    0.94662E-04   -0.62910E-04  4400   0.119E-02    0.448E-02
RMM:   5    -0.231893766830E+04    0.88744E-05   -0.82471E-05  3323   0.607E-03
  29 F= -.23391296E+04 E0= -.23391296E+04  d E =-.238801E-16  mag=     2.0000
       N       E                     dE             d eps       ncg     rms          rms(c)
DAV:   1    -0.231893778837E+04   -0.11120E-03   -0.65728E-01  5120   0.378E-01    0.386E-01
RMM:   2    -0.231893572211E+04    0.20663E-02   -0.77702E-03  4145   0.363E-02    0.200E-01
RMM:   3    -0.231893535831E+04    0.36380E-03   -0.15557E-03  4433   0.206E-02    0.756E-02
RMM:   4    -0.231893532293E+04    0.35381E-04   -0.23728E-04  4068   0.752E-03    0.303E-02
RMM:   5    -0.231893531993E+04    0.30057E-05   -0.34415E-05  2982   0.411E-03
  30 F= -.23391266E+04 E0= -.23391266E+04  d E =-.160405E-16  mag=     2.0000
       N       E                     dE             d eps       ncg     rms          rms(c)
DAV:   1    -0.231894643201E+04   -0.11109E-01   -0.12458E+00  4800   0.500E-01    0.386E-01
RMM:   2    -0.231894578884E+04    0.64317E-03   -0.50922E-03  3843   0.336E-02    0.221E-01
RMM:   3    -0.231894564123E+04    0.14762E-03   -0.14486E-03  4366   0.173E-02    0.604E-02
RMM:   4    -0.231894564093E+04    0.29676E-06   -0.15349E-04  3564   0.848E-03    0.323E-02
RMM:   5    -0.231894563869E+04    0.22478E-05   -0.33273E-05  2889   0.354E-03
  31 F= -.23391373E+04 E0= -.23391373E+04  d E =-.261701E-16  mag=     2.0000
       N       E                     dE             d eps       ncg     rms          rms(c)
DAV:   1    -0.231893559324E+04    0.10048E-01   -0.62025E-01  4960   0.385E-01    0.256E-01
RMM:   2    -0.231893543645E+04    0.15680E-03   -0.32775E-03  3728   0.257E-02    0.148E-01
RMM:   3    -0.231893535224E+04    0.84202E-04   -0.70981E-04  4288   0.115E-02    0.309E-02
RMM:   4    -0.231893534630E+04    0.59424E-05   -0.50316E-05  3061   0.583E-03
  32 F= -.23391270E+04 E0= -.23391270E+04  d E =-.200339E-16  mag=     2.0000
       N       E                     dE             d eps       ncg     rms          rms(c)
DAV:   1    -0.231894682734E+04   -0.11475E-01   -0.12391E+00  4800   0.510E-01    0.350E-01
RMM:   2    -0.231894646537E+04    0.36197E-03   -0.48183E-03  3739   0.305E-02    0.203E-01
RMM:   3    -0.231894637622E+04    0.89147E-04   -0.15112E-03  4188   0.161E-02    0.353E-02
RMM:   4    -0.231894635089E+04    0.25329E-04   -0.94441E-05  3356   0.771E-03    0.198E-02
RMM:   5    -0.231894634874E+04    0.21564E-05   -0.25243E-05  2779   0.271E-03
  33 F= -.23391375E+04 E0= -.23391375E+04  d E =-.138592E-16  mag=     2.0000
       N       E                     dE             d eps       ncg     rms          rms(c)
DAV:   1    -0.231892689888E+04    0.19452E-01   -0.64525E-01  5040   0.369E-01    0.375E-01
RMM:   2    -0.231892486779E+04    0.20311E-02   -0.81922E-03  3858   0.359E-02    0.192E-01
RMM:   3    -0.231892450200E+04    0.36578E-03   -0.17820E-03  4463   0.187E-02    0.684E-02
RMM:   4    -0.231892445773E+04    0.44279E-04   -0.20061E-04  3912   0.712E-03    0.249E-02
RMM:   5    -0.231892445221E+04    0.55154E-05   -0.29288E-05  2842   0.328E-03
  34 F= -.23391163E+04 E0= -.23391163E+04  d E =-.140779E-16  mag=     2.0000
       N       E                     dE             d eps       ncg     rms          rms(c)
DAV:   1    -0.231894436897E+04   -0.19911E-01   -0.13207E+00  4960   0.538E-01    0.589E-01
RMM:   2    -0.231893876389E+04    0.56051E-02   -0.19695E-02  4076   0.571E-02    0.299E-01
RMM:   3    -0.231893793882E+04    0.82507E-03   -0.43360E-03  4651   0.339E-02    0.116E-01
RMM:   4    -0.231893782175E+04    0.11708E-03   -0.64400E-04  4690   0.113E-02    0.448E-02
RMM:   5    -0.231893780146E+04    0.20290E-04   -0.92575E-05  3311   0.486E-03    0.141E-02
RMM:   6    -0.231893780027E+04    0.11888E-05   -0.13767E-05  2821   0.313E-03
  35 F= -.23391288E+04 E0= -.23391288E+04  d E =-.177692E-16  mag=     2.0000
       N       E                     dE             d eps       ncg     rms          rms(c)
DAV:   1    -0.231894586977E+04   -0.80683E-02   -0.62953E-01  4960   0.360E-01    0.296E-01
RMM:   2    -0.231894512897E+04    0.74080E-03   -0.37810E-03  3870   0.266E-02    0.166E-01
RMM:   3    -0.231894502025E+04    0.10872E-03   -0.94226E-04  4445   0.146E-02    0.664E-02
RMM:   4    -0.231894500795E+04    0.12297E-04   -0.14907E-04  3642   0.634E-03    0.297E-02
RMM:   5    -0.231894500676E+04    0.11986E-05   -0.33890E-05  2950   0.349E-03
  36 F= -.23391363E+04 E0= -.23391363E+04  d E =-.138764E-16  mag=     2.0000
       N       E                     dE             d eps       ncg     rms          rms(c)
DAV:   1    -0.231893656723E+04    0.84407E-02   -0.12304E+00  4720   0.504E-01    0.378E-01
RMM:   2    -0.231893580701E+04    0.76022E-03   -0.57405E-03  3763   0.330E-02    0.214E-01
RMM:   3    -0.231893567647E+04    0.13054E-03   -0.15326E-03  4366   0.154E-02    0.670E-02
RMM:   4    -0.231893564965E+04    0.26826E-04   -0.18082E-04  3473   0.950E-03    0.358E-02
RMM:   5    -0.231893564818E+04    0.14697E-05   -0.49625E-05  3049   0.395E-03
  37 F= -.23391272E+04 E0= -.23391272E+04  d E =-.192153E-16  mag=     2.0000
       N       E                     dE             d eps       ncg     rms          rms(c)
DAV:   1    -0.231892991838E+04    0.57313E-02   -0.61396E-01  5200   0.399E-01    0.308E-01
RMM:   2    -0.231892929454E+04    0.62385E-03   -0.43319E-03  3758   0.303E-02    0.174E-01
RMM:   3    -0.231892903148E+04    0.26306E-03   -0.99828E-04  4384   0.134E-02    0.395E-02
RMM:   4    -0.231892901962E+04    0.11862E-04   -0.79502E-05  3087   0.646E-03    0.156E-02
RMM:   5    -0.231892901779E+04    0.18253E-05   -0.15267E-05  2686   0.246E-03
  38 F= -.23391206E+04 E0= -.23391206E+04  d E =-.150152E-16  mag=     2.0000
       N       E                     dE             d eps       ncg     rms          rms(c)
DAV:   1    -0.231894345180E+04   -0.14432E-01   -0.12670E+00  4880   0.541E-01    0.533E-01
RMM:   2    -0.231893948189E+04    0.39699E-02   -0.15013E-02  3954   0.513E-02    0.276E-01
RMM:   3    -0.231893882704E+04    0.65485E-03   -0.38163E-03  4705   0.275E-02    0.925E-02
RMM:   4    -0.231893870087E+04    0.12617E-03   -0.34027E-04  4332   0.925E-03    0.367E-02
RMM:   5    -0.231893869129E+04    0.95783E-05   -0.55883E-05  3111   0.423E-03
  39 F= -.23391300E+04 E0= -.23391300E+04  d E =-.119398E-16  mag=     2.0000
       N       E                     dE             d eps       ncg     rms          rms(c)
DAV:   1    -0.231894450558E+04   -0.58047E-02   -0.61801E-01  4640   0.363E-01    0.252E-01
RMM:   2    -0.231894428351E+04    0.22207E-03   -0.22632E-03  3684   0.215E-02    0.146E-01
RMM:   3    -0.231894421833E+04    0.65179E-04   -0.70437E-04  4176   0.108E-02    0.290E-02
RMM:   4    -0.231894421310E+04    0.52313E-05   -0.47726E-05  2953   0.563E-03
  40 F= -.23391356E+04 E0= -.23391356E+04  d E =-.110260E-16  mag=     2.0000
       N       E                     dE             d eps       ncg     rms          rms(c)
DAV:   1    -0.231893516348E+04    0.90548E-02   -0.12454E+00  4720   0.516E-01    0.409E-01
RMM:   2    -0.231893344792E+04    0.17156E-02   -0.81310E-03  3933   0.387E-02    0.220E-01
RMM:   3    -0.231893317921E+04    0.26871E-03   -0.18629E-03  4574   0.189E-02    0.732E-02
RMM:   4    -0.231893314617E+04    0.33035E-04   -0.20643E-04  4039   0.783E-03    0.255E-02
RMM:   5    -0.231893314305E+04    0.31234E-05   -0.31225E-05  2947   0.348E-03
  41 F= -.23391246E+04 E0= -.23391246E+04  d E =-.130716E-16  mag=     2.0000
       N       E                     dE             d eps       ncg     rms          rms(c)
DAV:   1    -0.231894124606E+04   -0.80999E-02   -0.60379E-01  4640   0.364E-01    0.215E-01
RMM:   2    -0.231894124644E+04   -0.37473E-06   -0.14921E-03  3664   0.187E-02    0.128E-01
RMM:   3    -0.231894125300E+04   -0.65636E-05   -0.49054E-04  3756   0.905E-03    0.165E-02
RMM:   4    -0.231894124660E+04    0.64021E-05   -0.31302E-05  2819   0.538E-03
  42 F= -.23391328E+04 E0= -.23391328E+04  d E =-.122745E-16  mag=     2.0000
       N       E                     dE             d eps       ncg     rms          rms(c)
DAV:   1    -0.231894125040E+04    0.26032E-05   -0.11916E+00  4640   0.518E-01    0.349E-01
RMM:   2    -0.231894059740E+04    0.65300E-03   -0.50659E-03  3884   0.311E-02    0.194E-01
RMM:   3    -0.231894052437E+04    0.73030E-04   -0.93760E-04  4154   0.171E-02    0.621E-02
RMM:   4    -0.231894053200E+04   -0.76319E-05   -0.17569E-04  3802   0.715E-03    0.199E-02
RMM:   5    -0.231894053054E+04    0.14606E-05   -0.20543E-05  2835   0.318E-03
  43 F= -.23391318E+04 E0= -.23391318E+04  d E =-.118272E-16  mag=     2.0000
       N       E                     dE             d eps       ncg     rms          rms(c)
DAV:   1    -0.231894672658E+04   -0.61946E-02   -0.60772E-01  4720   0.386E-01    0.262E-01
RMM:   2    -0.231894668433E+04    0.42254E-04   -0.19653E-03  3640   0.216E-02    0.157E-01
RMM:   3    -0.231894661009E+04    0.74237E-04   -0.40282E-04  3687   0.930E-03    0.208E-02
RMM:   4    -0.231894661247E+04   -0.23830E-05   -0.34723E-05  2727   0.531E-03
  44 F= -.23391380E+04 E0= -.23391380E+04  d E =-.975795E-17  mag=     2.0000
       N       E                     dE             d eps       ncg     rms          rms(c)
DAV:   1    -0.231893329040E+04    0.13320E-01   -0.12311E+00  4800   0.501E-01    0.385E-01
RMM:   2    -0.231893232159E+04    0.96880E-03   -0.66638E-03  3738   0.337E-02    0.215E-01
RMM:   3    -0.231893214580E+04    0.17580E-03   -0.14361E-03  4587   0.168E-02    0.668E-02
RMM:   4    -0.231893213617E+04    0.96279E-05   -0.16257E-04  3575   0.727E-03    0.258E-02
RMM:   5    -0.231893213443E+04    0.17424E-05   -0.30248E-05  2915   0.327E-03
  45 F= -.23391236E+04 E0= -.23391236E+04  d E =-.134911E-16  mag=     2.0000
       N       E                     dE             d eps       ncg     rms          rms(c)
DAV:   1    -0.231894620136E+04   -0.14065E-01   -0.63945E-01  5040   0.368E-01    0.351E-01
RMM:   2    -0.231894459701E+04    0.16044E-02   -0.66574E-03  3780   0.311E-02    0.182E-01
RMM:   3    -0.231894431694E+04    0.28007E-03   -0.14050E-03  4400   0.181E-02    0.685E-02
RMM:   4    -0.231894428976E+04    0.27173E-04   -0.18264E-04  3932   0.661E-03    0.286E-02
RMM:   5    -0.231894428655E+04    0.32140E-05   -0.32477E-05  2892   0.333E-03
  46 F= -.23391354E+04 E0= -.23391354E+04  d E =-.969459E-17  mag=     2.0000
       N       E                     dE             d eps       ncg     rms          rms(c)
DAV:   1    -0.231893399591E+04    0.10294E-01   -0.12669E+00  4880   0.506E-01    0.450E-01
RMM:   2    -0.231893171869E+04    0.22772E-02   -0.10475E-02  3839   0.394E-02    0.238E-01
RMM:   3    -0.231893127458E+04    0.44410E-03   -0.22679E-03  4645   0.209E-02    0.869E-02
RMM:   4    -0.231893123106E+04    0.43525E-04   -0.29649E-04  4202   0.887E-03    0.355E-02
RMM:   5    -0.231893122512E+04    0.59328E-05   -0.55449E-05  3105   0.387E-03
  47 F= -.23391230E+04 E0= -.23391230E+04  d E =-.126980E-16  mag=     2.0000
       N       E                     dE             d eps       ncg     rms          rms(c)
DAV:   1    -0.231893814120E+04   -0.69101E-02   -0.66373E-01  5040   0.382E-01    0.429E-01
RMM:   2    -0.231893516029E+04    0.29809E-02   -0.10445E-02  3859   0.399E-02    0.215E-01
RMM:   3    -0.231893468777E+04    0.47252E-03   -0.22278E-03  4424   0.227E-02    0.847E-02
RMM:   4    -0.231893461813E+04    0.69646E-04   -0.33340E-04  4242   0.862E-03    0.332E-02
RMM:   5    -0.231893460969E+04    0.84397E-05   -0.54891E-05  3001   0.370E-03
  48 F= -.23391259E+04 E0= -.23391259E+04  d E =-.120698E-16  mag=     2.0000
       N       E                     dE             d eps       ncg     rms          rms(c)
DAV:   1    -0.231894074960E+04   -0.61315E-02   -0.12765E+00  4720   0.521E-01    0.528E-01
RMM:   2    -0.231893692856E+04    0.38210E-02   -0.16179E-02  3895   0.477E-02    0.269E-01
RMM:   3    -0.231893613418E+04    0.79439E-03   -0.30436E-03  4626   0.248E-02    0.101E-01
RMM:   4    -0.231893605238E+04    0.81797E-04   -0.40501E-04  4237   0.105E-02    0.368E-02
RMM:   5    -0.231893604491E+04    0.74730E-05   -0.66685E-05  3128   0.414E-03
  49 F= -.23391276E+04 E0= -.23391276E+04  d E =-.104714E-16  mag=     2.0000
