       N       E                     dE             d eps       ncg     rms          rms(c)
DAV:   1     0.121094130130E+05    0.12109E+05   -0.81950E+05  4560   0.138E+03
DAV:   2    -0.123383948689E+04   -0.13343E+05   -0.12820E+05  5440   0.318E+02
DAV:   3    -0.248631246545E+04   -0.12525E+04   -0.12434E+04  5480   0.101E+02
DAV:   4    -0.251234168610E+04   -0.26029E+02   -0.25917E+02  5760   0.177E+01
DAV:   5    -0.251302496656E+04   -0.68328E+00   -0.68216E+00  5680   0.248E+00    0.171E+02
RMM:   6    -0.146902812911E+04    0.10440E+04   -0.18911E+03  4490   0.376E+01    0.731E+01
RMM:   7    -0.163492990727E+04   -0.16590E+03   -0.26150E+02  5008   0.135E+01    0.526E+01
RMM:   8    -0.168642302696E+04   -0.51493E+02   -0.64518E+01  5026   0.730E+00    0.377E+01
RMM:   9    -0.181396276136E+04   -0.12754E+03   -0.64200E+01  4769   0.803E+00    0.251E+01
RMM:  10    -0.196305753790E+04   -0.14909E+03   -0.58492E+01  4773   0.688E+00    0.167E+01
RMM:  11    -0.207691988202E+04   -0.11386E+03   -0.57570E+01  4668   0.565E+00    0.136E+01
RMM:  12    -0.221333844393E+04   -0.13642E+03   -0.10932E+02  4543   0.734E+00    0.849E+00
RMM:  13    -0.228847651829E+04   -0.75138E+02   -0.75953E+01  4707   0.586E+00    0.440E+00
RMM:  14    -0.229958460893E+04   -0.11108E+02   -0.12675E+01  4779   0.331E+00    0.840E+00
RMM:  15    -0.230103022126E+04   -0.14456E+01   -0.30742E+00  5568   0.997E-01    0.710E+00
RMM:  16    -0.230254492979E+04   -0.15147E+01   -0.12676E+00  4563   0.667E-01    0.546E+00
RMM:  17    -0.230519111403E+04   -0.26462E+01   -0.17319E+00  4511   0.849E-01    0.203E+00
RMM:  18    -0.230633822008E+04   -0.11471E+01   -0.40126E-01  4698   0.531E-01    0.117E+00
RMM:  19    -0.230647594994E+04   -0.13773E+00   -0.15264E-01  4683   0.310E-01    0.814E-01
RMM:  20    -0.230652968585E+04   -0.53736E-01   -0.46237E-02  4815   0.227E-01    0.618E-01
RMM:  21    -0.230658031820E+04   -0.50632E-01   -0.18067E-02  4521   0.117E-01    0.259E-01
RMM:  22    -0.230660431249E+04   -0.23994E-01   -0.70402E-03  4647   0.772E-02    0.153E-01
RMM:  23    -0.230662692731E+04   -0.22615E-01   -0.58444E-03  4496   0.620E-02    0.106E-01
RMM:  24    -0.230663824610E+04   -0.11319E-01   -0.35713E-03  4502   0.557E-02    0.575E-02
RMM:  25    -0.230664481004E+04   -0.65639E-02   -0.19028E-03  4539   0.402E-02    0.614E-02
RMM:  26    -0.230664887814E+04   -0.40681E-02   -0.12671E-03  4351   0.286E-02    0.376E-02
RMM:  27    -0.230665007049E+04   -0.11924E-02   -0.51714E-04  4173   0.210E-02    0.979E-03
RMM:  28    -0.230665035747E+04   -0.28698E-03   -0.15144E-04  3947   0.107E-02    0.500E-03
RMM:  29    -0.230665045855E+04   -0.10108E-03   -0.32583E-05  3416   0.614E-03    0.289E-03
RMM:  30    -0.230665051588E+04   -0.57331E-04   -0.15486E-05  3097   0.391E-03    0.225E-03
RMM:  31    -0.230665053346E+04   -0.17579E-04   -0.72746E-06  2933   0.314E-03    0.139E-03
RMM:  32    -0.230665053969E+04   -0.62265E-05   -0.35171E-06  2553   0.211E-03
   1 F= -.23266903E+04 E0= -.23266903E+04  d E =-.255775E-24  mag=     1.0001
       N       E                     dE             d eps       ncg     rms          rms(c)
DAV:   1    -0.230663686377E+04    0.13670E-01   -0.20620E+00  4400   0.639E-01    0.331E-01
RMM:   2    -0.230663744721E+04   -0.58344E-03   -0.12148E-02  4116   0.474E-02    0.187E-01
RMM:   3    -0.230663714284E+04    0.30437E-03   -0.16256E-03  4757   0.197E-02    0.124E-01
RMM:   4    -0.230663702183E+04    0.12101E-03   -0.80519E-04  4211   0.133E-02    0.636E-02
RMM:   5    -0.230663699281E+04    0.29023E-04   -0.20302E-04  3603   0.675E-03    0.171E-02
RMM:   6    -0.230663699330E+04   -0.49114E-06   -0.18078E-05  2845   0.326E-03
   2 F= -.23266789E+04 E0= -.23266789E+04  d E =-.231612E-25  mag=     1.0000
       N       E                     dE             d eps       ncg     rms          rms(c)
DAV:   1    -0.230664002743E+04   -0.30346E-02   -0.81884E+00  4480   0.127E+00    0.654E-01
RMM:   2    -0.230664224116E+04   -0.22137E-02   -0.45521E-02  4203   0.941E-02    0.359E-01
RMM:   3    -0.230664085015E+04    0.13910E-02   -0.58663E-03  4991   0.403E-02    0.221E-01
RMM:   4    -0.230664075279E+04    0.97367E-04   -0.34799E-03  4842   0.248E-02    0.123E-01
RMM:   5    -0.230664057792E+04    0.17486E-03   -0.58936E-04  4351   0.120E-02    0.355E-02
RMM:   6    -0.230664057995E+04   -0.20242E-05   -0.76142E-05  3193   0.466E-03
   3 F= -.23266780E+04 E0= -.23266780E+04  d E =-.663042E-12  mag=     1.0000
       N       E                     dE             d eps       ncg     rms          rms(c)
DAV:   1    -0.230663911961E+04    0.14583E-02   -0.39195E+00  4440   0.745E-01    0.414E-01
RMM:   2    -0.230664050893E+04   -0.13893E-02   -0.16381E-02  4071   0.531E-02    0.207E-01
RMM:   3    -0.230664028332E+04    0.22561E-03   -0.19636E-03  4793   0.241E-02    0.131E-01
RMM:   4    -0.230664027114E+04    0.12182E-04   -0.89960E-04  4090   0.146E-02    0.741E-02
RMM:   5    -0.230664023154E+04    0.39603E-04   -0.21506E-04  3582   0.724E-03    0.238E-02
RMM:   6    -0.230664023672E+04   -0.51843E-05   -0.25720E-05  2902   0.350E-03
   4 F= -.23266800E+04 E0= -.23266800E+04  d E =-.250372E-22  mag=     1.0000
       N       E                     dE             d eps       ncg     rms          rms(c)
DAV:   1    -0.230663988727E+04    0.34427E-03   -0.81263E+00  4480   0.118E+00    0.624E-01
RMM:   2    -0.230664141859E+04   -0.15313E-02   -0.37394E-02  4163   0.837E-02    0.320E-01
RMM:   3    -0.230664027397E+04    0.11446E-02   -0.45373E-03  4511   0.359E-02    0.158E-01
RMM:   4    -0.230664049901E+04   -0.22504E-03   -0.16985E-03  4047   0.178E-02    0.440E-02
RMM:   5    -0.230664050404E+04   -0.50309E-05   -0.15873E-04  3288   0.104E-02    0.267E-02
RMM:   6    -0.230664050054E+04    0.35035E-05   -0.33369E-05  2920   0.373E-03
   5 F= -.23266803E+04 E0= -.23266803E+04  d E =-.743949E-27  mag=     1.0000
       N       E                     dE             d eps       ncg     rms          rms(c)
DAV:   1    -0.230663312973E+04    0.73743E-02   -0.41335E+00  4480   0.835E-01    0.446E-01
RMM:   2    -0.230663421635E+04   -0.10866E-02   -0.24174E-02  4113   0.653E-02    0.269E-01
RMM:   3    -0.230663349996E+04    0.71639E-03   -0.30122E-03  5054   0.244E-02    0.163E-01
RMM:   4    -0.230663317336E+04    0.32660E-03   -0.12720E-03  4597   0.159E-02    0.811E-02
RMM:   5    -0.230663316687E+04    0.64913E-05   -0.32285E-04  3706   0.868E-03    0.235E-02
RMM:   6    -0.230663317288E+04   -0.60136E-05   -0.32382E-05  2945   0.368E-03
   6 F= -.23266718E+04 E0= -.23266718E+04  d E =-.987171E-21  mag=     1.0000
       N       E                     dE             d eps       ncg     rms          rms(c)
DAV:   1    -0.230663512291E+04   -0.19560E-02   -0.83791E+00  4480   0.125E+00    0.655E-01
RMM:   2    -0.230663779712E+04   -0.26742E-02   -0.55597E-02  4401   0.105E-01    0.471E-01
RMM:   3    -0.230663549788E+04    0.22992E-02   -0.81022E-03  5407   0.381E-02    0.257E-01
RMM:   4    -0.230663442927E+04    0.10686E-02   -0.28429E-03  4766   0.224E-02    0.115E-01
RMM:   5    -0.230663460169E+04   -0.17241E-03   -0.67009E-04  4140   0.133E-02    0.361E-02
RMM:   6    -0.230663469296E+04   -0.91273E-04   -0.73172E-05  3252   0.526E-03    0.179E-02
RMM:   7    -0.230663471274E+04   -0.19784E-04   -0.24414E-05  2968   0.364E-03    0.796E-03
RMM:   8    -0.230663471606E+04   -0.33167E-05   -0.56225E-06  2778   0.238E-03
   7 F= -.23266756E+04 E0= -.23266756E+04  d E =-.225465E-27  mag=     1.0000
       N       E                     dE             d eps       ncg     rms          rms(c)
DAV:   1    -0.230662939740E+04    0.53153E-02   -0.42329E+00  4560   0.992E-01    0.483E-01
RMM:   2    -0.230663290197E+04   -0.35046E-02   -0.45119E-02  5178   0.104E-01    0.481E-01
RMM:   3    -0.230662906087E+04    0.38411E-02   -0.48727E-03  4481   0.407E-02    0.199E-01
RMM:   4    -0.230662872995E+04    0.33092E-03   -0.30689E-03  4991   0.213E-02    0.474E-02
RMM:   5    -0.230662876408E+04   -0.34131E-04   -0.16367E-04  3272   0.848E-03    0.236E-02
RMM:   6    -0.230662875462E+04    0.94639E-05   -0.71409E-05  3311   0.410E-03
   8 F= -.23266665E+04 E0= -.23266665E+04  d E =-.612882E-21  mag=     1.0000
       N       E                     dE             d eps       ncg     rms          rms(c)
DAV:   1    -0.230662731968E+04    0.14444E-02   -0.81206E+00  4480   0.140E+00    0.822E-01
RMM:   2    -0.230663326121E+04   -0.59415E-02   -0.83758E-02  5123   0.144E-01    0.777E-01
RMM:   3    -0.230662369429E+04    0.95669E-02   -0.11969E-02  5309   0.535E-02    0.333E-01
RMM:   4    -0.230662277826E+04    0.91603E-03   -0.40453E-03  5078   0.239E-02    0.105E-01
RMM:   5    -0.230662286116E+04   -0.82897E-04   -0.42294E-04  3947   0.119E-02    0.342E-02
RMM:   6    -0.230662284600E+04    0.15158E-04   -0.70100E-05  3260   0.429E-03    0.188E-02
RMM:   7    -0.230662284164E+04    0.43535E-05   -0.41459E-05  3220   0.349E-03
   9 F= -.23266644E+04 E0= -.23266644E+04  d E =-.891268E-24  mag=     1.0000
       N       E                     dE             d eps       ncg     rms          rms(c)
DAV:   1    -0.230665031721E+04   -0.27471E-01   -0.39778E+00  4560   0.858E-01    0.529E-01
RMM:   2    -0.230665028159E+04    0.35616E-04   -0.26534E-02  4699   0.755E-02    0.380E-01
RMM:   3    -0.230664865474E+04    0.16269E-02   -0.46641E-03  5209   0.296E-02    0.229E-01
RMM:   4    -0.230664802612E+04    0.62862E-03   -0.15259E-03  4999   0.166E-02    0.754E-02
RMM:   5    -0.230664804497E+04   -0.18849E-04   -0.16621E-04  3287   0.668E-03    0.242E-02
RMM:   6    -0.230664804544E+04   -0.46988E-06   -0.31041E-05  2981   0.332E-03
  10 F= -.23266878E+04 E0= -.23266878E+04  d E =-.892975E-19  mag=     1.0000
       N       E                     dE             d eps       ncg     rms          rms(c)
DAV:   1    -0.230665214148E+04   -0.40965E-02   -0.74906E+00  4480   0.100E+00    0.598E-01
RMM:   2    -0.230664974418E+04    0.23973E-02   -0.22675E-02  4406   0.624E-02    0.286E-01
RMM:   3    -0.230664880721E+04    0.93697E-03   -0.28615E-03  4731   0.327E-02    0.113E-01
RMM:   4    -0.230664885229E+04   -0.45086E-04   -0.52867E-04  3937   0.990E-03    0.499E-02
RMM:   5    -0.230664885661E+04   -0.43121E-05   -0.82711E-05  3180   0.637E-03
  11 F= -.23266887E+04 E0= -.23266887E+04  d E =-.418068E-24  mag=     1.0000
       N       E                     dE             d eps       ncg     rms          rms(c)
DAV:   1    -0.230664235764E+04    0.64947E-02   -0.38620E+00  4520   0.797E-01    0.481E-01
RMM:   2    -0.230664216839E+04    0.18925E-03   -0.17717E-02  4751   0.600E-02    0.257E-01
RMM:   3    -0.230664161219E+04    0.55620E-03   -0.24728E-03  4306   0.306E-02    0.156E-01
RMM:   4    -0.230664155587E+04    0.56324E-04   -0.11154E-03  4260   0.164E-02    0.821E-02
RMM:   5    -0.230664151457E+04    0.41304E-04   -0.21576E-04  3833   0.775E-03    0.303E-02
RMM:   6    -0.230664153170E+04   -0.17131E-04   -0.39594E-05  3004   0.350E-03    0.142E-02
RMM:   7    -0.230664153326E+04   -0.15627E-05   -0.79157E-06  2796   0.248E-03
  12 F= -.23266833E+04 E0= -.23266833E+04  d E =-.247663E-17  mag=     1.0000
       N       E                     dE             d eps       ncg     rms          rms(c)
DAV:   1    -0.230664434177E+04   -0.28101E-02   -0.76172E+00  4480   0.124E+00    0.691E-01
RMM:   2    -0.230664627940E+04   -0.19376E-02   -0.38330E-02  4720   0.910E-02    0.382E-01
RMM:   3    -0.230664520161E+04    0.10778E-02   -0.44037E-03  4367   0.475E-02    0.193E-01
RMM:   4    -0.230664558161E+04   -0.38000E-03   -0.20707E-03  4834   0.202E-02    0.958E-02
RMM:   5    -0.230664556411E+04    0.17493E-04   -0.41478E-04  3975   0.104E-02    0.442E-02
RMM:   6    -0.230664557784E+04   -0.13724E-04   -0.74669E-05  3304   0.461E-03    0.176E-02
RMM:   7    -0.230664558228E+04   -0.44459E-05   -0.17682E-05  2894   0.294E-03
  13 F= -.23266832E+04 E0= -.23266832E+04  d E =-.503830E-26  mag=     1.0000
       N       E                     dE             d eps       ncg     rms          rms(c)
DAV:   1    -0.230664193757E+04    0.36403E-02   -0.22496E+00  4480   0.679E-01    0.419E-01
RMM:   2    -0.230664236995E+04   -0.43238E-03   -0.16197E-02  4326   0.556E-02    0.248E-01
RMM:   3    -0.230664177348E+04    0.59647E-03   -0.21887E-03  4567   0.252E-02    0.148E-01
RMM:   4    -0.230664166439E+04    0.10910E-03   -0.99933E-04  4576   0.145E-02    0.719E-02
RMM:   5    -0.230664162116E+04    0.43227E-04   -0.14338E-04  3329   0.637E-03    0.194E-02
RMM:   6    -0.230664164313E+04   -0.21971E-04   -0.30759E-05  2919   0.342E-03    0.909E-03
RMM:   7    -0.230664164537E+04   -0.22349E-05   -0.54615E-06  2706   0.222E-03
  14 F= -.23266818E+04 E0= -.23266818E+04  d E =-.126153E-21  mag=     1.0000
       N       E                     dE             d eps       ncg     rms          rms(c)
DAV:   1    -0.230664946071E+04   -0.78176E-02   -0.12925E+00  4720   0.492E-01    0.561E-01
RMM:   2    -0.230664557997E+04    0.38807E-02   -0.17449E-02  4418   0.519E-02    0.348E-01
RMM:   3    -0.230664477997E+04    0.80000E-03   -0.33957E-03  4731   0.263E-02    0.224E-01
RMM:   4    -0.230664439183E+04    0.38814E-03   -0.14975E-03  4654   0.181E-02    0.123E-01
RMM:   5    -0.230664420049E+04    0.19134E-03   -0.36901E-04  3912   0.971E-03    0.325E-02
RMM:   6    -0.230664418775E+04    0.12733E-04   -0.74522E-05  3189   0.446E-03    0.114E-02
RMM:   7    -0.230664418615E+04    0.16030E-05   -0.13883E-05  2773   0.272E-03
  15 F= -.23266836E+04 E0= -.23266836E+04  d E =-.135221E-20  mag=     1.0000
       N       E                     dE             d eps       ncg     rms          rms(c)
DAV:   1    -0.230664635600E+04   -0.21682E-02   -0.62129E-01  4480   0.331E-01    0.289E-01
RMM:   2    -0.230664627144E+04    0.84561E-04   -0.28913E-03  3671   0.226E-02    0.168E-01
RMM:   3    -0.230664610503E+04    0.16641E-03   -0.54551E-04  3858   0.101E-02    0.579E-02
RMM:   4    -0.230664611704E+04   -0.12002E-04   -0.15386E-04  3113   0.694E-03    0.296E-02
RMM:   5    -0.230664610328E+04    0.13751E-04   -0.30815E-05  2705   0.353E-03    0.101E-02
RMM:   6    -0.230664610196E+04    0.13220E-05   -0.66810E-06  2418   0.167E-03
  16 F= -.23266856E+04 E0= -.23266856E+04  d E =-.210647E-21  mag=     1.0000
       N       E                     dE             d eps       ncg     rms          rms(c)
DAV:   1    -0.230664897887E+04   -0.28756E-02   -0.12376E+00  4840   0.476E-01    0.500E-01
RMM:   2    -0.230664683122E+04    0.21477E-02   -0.14987E-02  4473   0.494E-02    0.327E-01
RMM:   3    -0.230664618911E+04    0.64211E-03   -0.30853E-03  4823   0.270E-02    0.213E-01
RMM:   4    -0.230664578842E+04    0.40069E-03   -0.11361E-03  4319   0.164E-02    0.106E-01
RMM:   5    -0.230664568337E+04    0.10505E-03   -0.28003E-04  3803   0.780E-03    0.272E-02
RMM:   6    -0.230664567690E+04    0.64635E-05   -0.45618E-05  3015   0.391E-03
  17 F= -.23266857E+04 E0= -.23266857E+04  d E =-.111344E-20  mag=     1.0000
       N       E                     dE             d eps       ncg     rms          rms(c)
DAV:   1    -0.230664993737E+04   -0.42540E-02   -0.64116E-01  4720   0.347E-01    0.370E-01
RMM:   2    -0.230664855045E+04    0.13869E-02   -0.84508E-03  4257   0.361E-02    0.229E-01
RMM:   3    -0.230664823989E+04    0.31055E-03   -0.16309E-03  4602   0.180E-02    0.154E-01
RMM:   4    -0.230664802496E+04    0.21493E-03   -0.67447E-04  4127   0.125E-02    0.769E-02
RMM:   5    -0.230664796231E+04    0.62654E-04   -0.15994E-04  3553   0.625E-03    0.198E-02
RMM:   6    -0.230664795819E+04    0.41171E-05   -0.27775E-05  2882   0.338E-03
  18 F= -.23266878E+04 E0= -.23266878E+04  d E =-.154109E-20  mag=     1.0000
       N       E                     dE             d eps       ncg     rms          rms(c)
DAV:   1    -0.230664770410E+04    0.25821E-03   -0.12368E+00  4640   0.477E-01    0.395E-01
RMM:   2    -0.230664693270E+04    0.77139E-03   -0.88466E-03  4064   0.371E-02    0.228E-01
RMM:   3    -0.230664662160E+04    0.31111E-03   -0.13811E-03  4622   0.172E-02    0.133E-01
RMM:   4    -0.230664660887E+04    0.12722E-04   -0.73357E-04  4327   0.125E-02    0.677E-02
RMM:   5    -0.230664654048E+04    0.68397E-04   -0.12070E-04  3361   0.611E-03    0.184E-02
RMM:   6    -0.230664653788E+04    0.25936E-05   -0.26766E-05  2935   0.314E-03
  19 F= -.23266862E+04 E0= -.23266862E+04  d E =-.365744E-21  mag=     1.0000
       N       E                     dE             d eps       ncg     rms          rms(c)
DAV:   1    -0.230664791356E+04   -0.13731E-02   -0.63621E-01  4800   0.356E-01    0.332E-01
RMM:   2    -0.230664694392E+04    0.96964E-03   -0.73349E-03  4115   0.341E-02    0.208E-01
RMM:   3    -0.230664669949E+04    0.24443E-03   -0.12665E-03  4341   0.159E-02    0.137E-01
RMM:   4    -0.230664658104E+04    0.11845E-03   -0.53290E-04  4081   0.111E-02    0.737E-02
RMM:   5    -0.230664652693E+04    0.54103E-04   -0.13237E-04  3405   0.607E-03    0.198E-02
RMM:   6    -0.230664652343E+04    0.35043E-05   -0.26439E-05  2873   0.329E-03
  20 F= -.23266861E+04 E0= -.23266861E+04  d E =-.145996E-21  mag=     1.0000
       N       E                     dE             d eps       ncg     rms          rms(c)
DAV:   1    -0.230664802674E+04   -0.14998E-02   -0.12486E+00  4880   0.500E-01    0.476E-01
RMM:   2    -0.230664636894E+04    0.16578E-02   -0.14132E-02  4220   0.460E-02    0.309E-01
RMM:   3    -0.230664578488E+04    0.58406E-03   -0.27845E-03  4806   0.231E-02    0.204E-01
RMM:   4    -0.230664548873E+04    0.29615E-03   -0.11190E-03  4509   0.160E-02    0.103E-01
RMM:   5    -0.230664538436E+04    0.10437E-03   -0.25826E-04  3631   0.788E-03    0.269E-02
RMM:   6    -0.230664537762E+04    0.67478E-05   -0.44524E-05  3095   0.385E-03
  21 F= -.23266853E+04 E0= -.23266853E+04  d E =-.530285E-20  mag=     1.0000
       N       E                     dE             d eps       ncg     rms          rms(c)
DAV:   1    -0.230664593616E+04   -0.55179E-03   -0.60475E-01  4400   0.346E-01    0.258E-01
RMM:   2    -0.230664610283E+04   -0.16667E-03   -0.27874E-03  3706   0.238E-02    0.151E-01
RMM:   3    -0.230664607645E+04    0.26375E-04   -0.56582E-04  4233   0.989E-03    0.857E-02
RMM:   4    -0.230664602551E+04    0.50945E-04   -0.31583E-04  3562   0.908E-03    0.381E-02
RMM:   5    -0.230664600326E+04    0.22245E-04   -0.31068E-05  2798   0.388E-03    0.789E-03
RMM:   6    -0.230664600266E+04    0.59935E-06   -0.53771E-06  2574   0.174E-03
  22 F= -.23266862E+04 E0= -.23266862E+04  d E =-.129936E-21  mag=     1.0000
       N       E                     dE             d eps       ncg     rms          rms(c)
DAV:   1    -0.230664892582E+04   -0.29226E-02   -0.12648E+00  4840   0.501E-01    0.496E-01
RMM:   2    -0.230664725515E+04    0.16707E-02   -0.15052E-02  4506   0.502E-02    0.342E-01
RMM:   3    -0.230664643598E+04    0.81917E-03   -0.34759E-03  4851   0.274E-02    0.221E-01
RMM:   4    -0.230664595161E+04    0.48437E-03   -0.10837E-03  4325   0.160E-02    0.957E-02
RMM:   5    -0.230664589749E+04    0.54124E-04   -0.22940E-04  3641   0.725E-03    0.259E-02
RMM:   6    -0.230664589021E+04    0.72769E-05   -0.40404E-05  3069   0.387E-03
  23 F= -.23266852E+04 E0= -.23266852E+04  d E =-.932825E-20  mag=     1.0000
       N       E                     dE             d eps       ncg     rms          rms(c)
DAV:   1    -0.230664428519E+04    0.16123E-02   -0.62620E-01  4400   0.352E-01    0.261E-01
RMM:   2    -0.230664434884E+04   -0.63650E-04   -0.36975E-03  3726   0.256E-02    0.155E-01
RMM:   3    -0.230664435787E+04   -0.90337E-05   -0.92558E-04  4550   0.114E-02    0.959E-02
RMM:   4    -0.230664420858E+04    0.14929E-03   -0.29966E-04  3437   0.100E-02    0.223E-02
RMM:   5    -0.230664420435E+04    0.42280E-05   -0.31790E-05  2794   0.310E-03
  24 F= -.23266836E+04 E0= -.23266836E+04  d E =-.135380E-20  mag=     1.0000
       N       E                     dE             d eps       ncg     rms          rms(c)
DAV:   1    -0.230664660285E+04   -0.23943E-02   -0.12776E+00  4960   0.518E-01    0.523E-01
RMM:   2    -0.230664358680E+04    0.30160E-02   -0.17851E-02  4373   0.529E-02    0.325E-01
RMM:   3    -0.230664302222E+04    0.56458E-03   -0.35143E-03  4733   0.279E-02    0.221E-01
RMM:   4    -0.230664257890E+04    0.44331E-03   -0.14550E-03  4574   0.179E-02    0.106E-01
RMM:   5    -0.230664246265E+04    0.11626E-03   -0.31060E-04  3913   0.788E-03    0.297E-02
RMM:   6    -0.230664245387E+04    0.87756E-05   -0.52710E-05  3117   0.415E-03
  25 F= -.23266827E+04 E0= -.23266827E+04  d E =-.717558E-21  mag=     1.0000
       N       E                     dE             d eps       ncg     rms          rms(c)
DAV:   1    -0.230664169113E+04    0.77151E-03   -0.63609E-01  4680   0.376E-01    0.400E-01
RMM:   2    -0.230664126249E+04    0.42865E-03   -0.11793E-02  4595   0.486E-02    0.343E-01
RMM:   3    -0.230663949572E+04    0.17668E-02   -0.31177E-03  4782   0.241E-02    0.165E-01
RMM:   4    -0.230663926118E+04    0.23454E-03   -0.12061E-03  3742   0.116E-02    0.414E-02
RMM:   5    -0.230663921743E+04    0.43747E-04   -0.15442E-04  3143   0.876E-03    0.167E-02
RMM:   6    -0.230663921728E+04    0.15218E-06   -0.18776E-05  2806   0.243E-03
  26 F= -.23266785E+04 E0= -.23266785E+04  d E =-.185986E-20  mag=     1.0000
       N       E                     dE             d eps       ncg     rms          rms(c)
DAV:   1    -0.230664847856E+04   -0.92611E-02   -0.12417E+00  5080   0.475E-01    0.618E-01
RMM:   2    -0.230664638960E+04    0.20890E-02   -0.27577E-02  4861   0.684E-02    0.501E-01
RMM:   3    -0.230664248920E+04    0.39004E-02   -0.68502E-03  5363   0.370E-02    0.251E-01
RMM:   4    -0.230664175665E+04    0.73255E-03   -0.14922E-03  4542   0.162E-02    0.978E-02
RMM:   5    -0.230664173792E+04    0.18731E-04   -0.30063E-04  3436   0.739E-03    0.275E-02
RMM:   6    -0.230664173194E+04    0.59738E-05   -0.52965E-05  3049   0.447E-03
  27 F= -.23266820E+04 E0= -.23266820E+04  d E =-.615125E-21  mag=     1.0000
       N       E                     dE             d eps       ncg     rms          rms(c)
DAV:   1    -0.230665174198E+04   -0.10004E-01   -0.60202E-01  4680   0.338E-01    0.364E-01
RMM:   2    -0.230665105336E+04    0.68862E-03   -0.76950E-03  4764   0.381E-02    0.275E-01
RMM:   3    -0.230665012758E+04    0.92578E-03   -0.21079E-03  4533   0.211E-02    0.159E-01
RMM:   4    -0.230664985866E+04    0.26892E-03   -0.54845E-04  4162   0.110E-02    0.579E-02
RMM:   5    -0.230664985663E+04    0.20343E-05   -0.10167E-04  3116   0.495E-03    0.159E-02
RMM:   6    -0.230664985345E+04    0.31755E-05   -0.17834E-05  2797   0.293E-03
  28 F= -.23266896E+04 E0= -.23266896E+04  d E =-.196159E-21  mag=     1.0000
       N       E                     dE             d eps       ncg     rms          rms(c)
DAV:   1    -0.230665051552E+04   -0.65889E-03   -0.11645E+00  4480   0.459E-01    0.379E-01
RMM:   2    -0.230665029265E+04    0.22287E-03   -0.43676E-03  3921   0.291E-02    0.220E-01
RMM:   3    -0.230665009316E+04    0.19948E-03   -0.88189E-04  4392   0.137E-02    0.769E-02
RMM:   4    -0.230665007579E+04    0.17377E-04   -0.29033E-04  3561   0.952E-03    0.426E-02
RMM:   5    -0.230665004284E+04    0.32948E-04   -0.38625E-05  2899   0.422E-03    0.119E-02
RMM:   6    -0.230665004098E+04    0.18545E-05   -0.95987E-06  2795   0.211E-03
  29 F= -.23266899E+04 E0= -.23266899E+04  d E =-.120386E-19  mag=     1.0000
       N       E                     dE             d eps       ncg     rms          rms(c)
DAV:   1    -0.230664560253E+04    0.44403E-02   -0.59264E-01  4680   0.329E-01    0.306E-01
RMM:   2    -0.230664526595E+04    0.33658E-03   -0.40264E-03  4192   0.283E-02    0.196E-01
RMM:   3    -0.230664513503E+04    0.13091E-03   -0.11178E-03  4501   0.145E-02    0.145E-01
RMM:   4    -0.230664491588E+04    0.21915E-03   -0.52833E-04  4089   0.115E-02    0.502E-02
RMM:   5    -0.230664489995E+04    0.15928E-04   -0.62572E-05  3070   0.443E-03    0.120E-02
RMM:   6    -0.230664489797E+04    0.19857E-05   -0.11045E-05  2733   0.246E-03
  30 F= -.23266843E+04 E0= -.23266843E+04  d E =-.727088E-21  mag=     1.0000
       N       E                     dE             d eps       ncg     rms          rms(c)
DAV:   1    -0.230664901892E+04   -0.41190E-02   -0.11786E+00  4720   0.467E-01    0.469E-01
RMM:   2    -0.230664772883E+04    0.12901E-02   -0.10069E-02  4360   0.446E-02    0.308E-01
RMM:   3    -0.230664716133E+04    0.56750E-03   -0.28377E-03  5019   0.229E-02    0.217E-01
RMM:   4    -0.230664662989E+04    0.53144E-03   -0.11283E-03  4536   0.166E-02    0.779E-02
RMM:   5    -0.230664659836E+04    0.31525E-04   -0.15007E-04  3381   0.589E-03    0.194E-02
RMM:   6    -0.230664659455E+04    0.38153E-05   -0.27255E-05  2979   0.350E-03
  31 F= -.23266867E+04 E0= -.23266867E+04  d E =-.402296E-20  mag=     1.0000
