       N       E                     dE             d eps       ncg     rms          rms(c)
DAV:   1     0.127158929479E+05    0.12716E+05   -0.82470E+05  4408   0.144E+03
DAV:   2    -0.104875407519E+04   -0.13765E+05   -0.13184E+05  5240   0.330E+02
DAV:   3    -0.245900095259E+04   -0.14102E+04   -0.13971E+04  5312   0.111E+02
DAV:   4    -0.250551713848E+04   -0.46516E+02   -0.46293E+02  6616   0.302E+01
DAV:   5    -0.250639065819E+04   -0.87352E+00   -0.87195E+00  5512   0.326E+00    0.170E+02
RMM:   6    -0.147533454819E+04    0.10311E+04   -0.19271E+03  4368   0.387E+01    0.727E+01
RMM:   7    -0.163896220732E+04   -0.16363E+03   -0.28501E+02  4985   0.141E+01    0.503E+01
RMM:   8    -0.169394648770E+04   -0.54984E+02   -0.54548E+01  4995   0.742E+00    0.383E+01
RMM:   9    -0.180686449298E+04   -0.11292E+03   -0.63857E+01  4810   0.753E+00    0.372E+01
RMM:  10    -0.190588530859E+04   -0.99021E+02   -0.45147E+01  5211   0.652E+00    0.217E+01
RMM:  11    -0.202987085595E+04   -0.12399E+03   -0.57562E+01  4714   0.597E+00    0.176E+01
RMM:  12    -0.210932082534E+04   -0.79450E+02   -0.39388E+01  4829   0.469E+00    0.122E+01
RMM:  13    -0.224219398541E+04   -0.13287E+03   -0.12380E+02  4365   0.782E+00    0.975E+00
RMM:  14    -0.227521445917E+04   -0.33020E+02   -0.30840E+01  4407   0.455E+00    0.722E+00
RMM:  15    -0.229227893196E+04   -0.17064E+02   -0.18036E+01  4500   0.298E+00    0.698E+00
RMM:  16    -0.229374915196E+04   -0.14702E+01   -0.22432E+00  4745   0.156E+00    0.566E+00
RMM:  17    -0.229555363275E+04   -0.18045E+01   -0.14944E+00  4428   0.742E-01    0.320E+00
RMM:  18    -0.229720412053E+04   -0.16505E+01   -0.84130E-01  4467   0.674E-01    0.215E+00
RMM:  19    -0.229762399945E+04   -0.41988E+00   -0.25298E-01  4858   0.357E-01    0.932E-01
RMM:  20    -0.229771517792E+04   -0.91178E-01   -0.71298E-02  5008   0.179E-01    0.776E-01
RMM:  21    -0.229778356615E+04   -0.68388E-01   -0.20730E-02  4680   0.102E-01    0.361E-01
RMM:  22    -0.229784380621E+04   -0.60240E-01   -0.13703E-02  4398   0.840E-02    0.160E-01
RMM:  23    -0.229787667926E+04   -0.32873E-01   -0.69977E-03  4435   0.644E-02    0.118E-01
RMM:  24    -0.229790408254E+04   -0.27403E-01   -0.65507E-03  4381   0.570E-02    0.912E-02
RMM:  25    -0.229791422079E+04   -0.10138E-01   -0.28251E-03  4603   0.445E-02    0.679E-02
RMM:  26    -0.229791921311E+04   -0.49923E-02   -0.15193E-03  4585   0.256E-02    0.328E-02
RMM:  27    -0.229792093356E+04   -0.17205E-02   -0.42374E-04  4033   0.187E-02    0.257E-02
RMM:  28    -0.229792176988E+04   -0.83632E-03   -0.24048E-04  3858   0.101E-02    0.867E-03
RMM:  29    -0.229792204309E+04   -0.27321E-03   -0.73901E-05  3534   0.874E-03    0.629E-03
RMM:  30    -0.229792211021E+04   -0.67120E-04   -0.21066E-05  3011   0.375E-03    0.323E-03
RMM:  31    -0.229792215199E+04   -0.41786E-04   -0.85930E-06  2824   0.350E-03    0.169E-03
RMM:  32    -0.229792217075E+04   -0.18757E-04   -0.57305E-06  2573   0.241E-03    0.108E-03
RMM:  33    -0.229792217695E+04   -0.61950E-05   -0.28253E-06  2447   0.204E-03
   1 F= -.23182084E+04 E0= -.23182084E+04  d E =-.231821E+04  mag=     2.9999
       N       E                     dE             d eps       ncg     rms          rms(c)
DAV:   1    -0.229761596664E+04    0.30620E+00   -0.74952E+01  4704   0.407E+00    0.199E+00
RMM:   2    -0.229812804682E+04   -0.51208E+00   -0.54068E+00  6276   0.103E+00    0.190E+00
RMM:   3    -0.229813456022E+04   -0.65134E-02   -0.43271E-01  5656   0.281E-01    0.172E+00
RMM:   4    -0.229811453963E+04    0.20021E-01   -0.71288E-02  5646   0.855E-02    0.109E+00
RMM:   5    -0.229810338845E+04    0.11151E-01   -0.74916E-02  5397   0.929E-02    0.305E-01
RMM:   6    -0.229810238957E+04    0.99888E-03   -0.38030E-03  4547   0.387E-02    0.110E-01
RMM:   7    -0.229810232418E+04    0.65386E-04   -0.18573E-03  4681   0.143E-02    0.534E-02
RMM:   8    -0.229810249215E+04   -0.16797E-03   -0.29992E-04  3607   0.917E-03    0.256E-02
RMM:   9    -0.229810264399E+04   -0.15184E-03   -0.68556E-05  3165   0.579E-03    0.130E-02
RMM:  10    -0.229810274197E+04   -0.97985E-04   -0.34291E-05  3007   0.467E-03    0.732E-03
RMM:  11    -0.229810281104E+04   -0.69069E-04   -0.17783E-05  2883   0.392E-03    0.498E-03
RMM:  12    -0.229810287253E+04   -0.61486E-04   -0.15634E-05  2878   0.366E-03    0.272E-03
RMM:  13    -0.229810289661E+04   -0.24078E-04   -0.87159E-06  2780   0.329E-03    0.180E-03
RMM:  14    -0.229810290330E+04   -0.66966E-05   -0.44446E-06  2550   0.250E-03
   2 F= -.23183936E+04 E0= -.23183936E+04  d E =-.185205E+00  mag=     3.0000
       N       E                     dE             d eps       ncg     rms          rms(c)
DAV:   1    -0.229825891411E+04   -0.15602E+00   -0.16086E+01  4520   0.199E+00    0.925E-01
RMM:   2    -0.229836791940E+04   -0.10901E+00   -0.11303E+00  6085   0.519E-01    0.104E+00
RMM:   3    -0.229837230104E+04   -0.43816E-02   -0.13003E-01  5682   0.152E-01    0.946E-01
RMM:   4    -0.229836576081E+04    0.65402E-02   -0.18009E-02  5060   0.397E-02    0.438E-01
RMM:   5    -0.229836342047E+04    0.23403E-02   -0.67942E-03  5271   0.315E-02    0.147E-01
RMM:   6    -0.229836339166E+04    0.28812E-04   -0.11735E-03  4360   0.176E-02    0.431E-02
RMM:   7    -0.229836335510E+04    0.36560E-04   -0.11766E-04  3152   0.686E-03    0.253E-02
RMM:   8    -0.229836334640E+04    0.87005E-05   -0.11881E-04  3188   0.648E-03    0.101E-02
RMM:   9    -0.229836335092E+04   -0.45164E-05   -0.20362E-05  2906   0.378E-03
   3 F= -.23186517E+04 E0= -.23186517E+04  d E =-.443301E+00  mag=     3.0000
       N       E                     dE             d eps       ncg     rms          rms(c)
DAV:   1    -0.229835622683E+04    0.71196E-02   -0.21736E+00  4640   0.906E-01    0.587E-01
RMM:   2    -0.229842778979E+04   -0.71563E-01   -0.48141E-01  6189   0.237E-01    0.189E+00
RMM:   3    -0.229840053491E+04    0.27255E-01   -0.56609E-02  5414   0.996E-02    0.299E-01
RMM:   4    -0.229840056644E+04   -0.31527E-04   -0.88524E-03  4519   0.224E-02    0.152E-01
RMM:   5    -0.229840048953E+04    0.76904E-04   -0.63501E-04  3738   0.108E-02    0.181E-01
RMM:   6    -0.229840021417E+04    0.27536E-03   -0.70704E-04  4135   0.119E-02    0.354E-02
RMM:   7    -0.229840021500E+04   -0.82178E-06   -0.99619E-05  2889   0.607E-03
   4 F= -.23186882E+04 E0= -.23186882E+04  d E =-.364912E-01  mag=     3.0000
       N       E                     dE             d eps       ncg     rms          rms(c)
DAV:   1    -0.229824535762E+04    0.15486E+00   -0.89297E+00  4448   0.183E+00    0.117E+00
RMM:   2    -0.229854062806E+04   -0.29527E+00   -0.19815E+00  6193   0.476E-01    0.391E+00
RMM:   3    -0.229842964888E+04    0.11098E+00   -0.23833E-01  5581   0.219E-01    0.666E-01
RMM:   4    -0.229842934596E+04    0.30292E-03   -0.36864E-02  5316   0.481E-02    0.334E-01
RMM:   5    -0.229842887686E+04    0.46909E-03   -0.28154E-03  4770   0.213E-02    0.362E-01
RMM:   6    -0.229842782011E+04    0.10568E-02   -0.25881E-03  4985   0.218E-02    0.113E-01
RMM:   7    -0.229842778942E+04    0.30685E-04   -0.40793E-04  3518   0.109E-02    0.537E-02
RMM:   8    -0.229842783330E+04   -0.43878E-04   -0.77316E-05  2969   0.558E-03    0.182E-02
RMM:   9    -0.229842788908E+04   -0.55783E-04   -0.27228E-05  2861   0.395E-03    0.101E-02
RMM:  10    -0.229842791858E+04   -0.29500E-04   -0.64890E-06  2797   0.279E-03    0.609E-03
RMM:  11    -0.229842794738E+04   -0.28794E-04   -0.48002E-06  2749   0.226E-03    0.358E-03
RMM:  12    -0.229842796718E+04   -0.19806E-04   -0.35513E-06  2574   0.204E-03    0.236E-03
RMM:  13    -0.229842797758E+04   -0.10396E-04   -0.26825E-06  2561   0.177E-03    0.154E-03
RMM:  14    -0.229842798073E+04   -0.31495E-05   -0.13557E-06  2408   0.151E-03
   5 F= -.23187152E+04 E0= -.23187152E+04  d E =-.635466E-01  mag=     3.0000
       N       E                     dE             d eps       ncg     rms          rms(c)
DAV:   1    -0.229842642189E+04    0.15557E-02   -0.86688E-02  4720   0.181E-01    0.112E-01
RMM:   2    -0.229842919946E+04   -0.27776E-02   -0.19127E-02  5983   0.481E-02    0.364E-01
RMM:   3    -0.229842822628E+04    0.97318E-03   -0.20438E-03  3262   0.190E-02    0.678E-02
RMM:   4    -0.229842822496E+04    0.13233E-05   -0.33586E-04  2964   0.524E-03    0.323E-02
RMM:   5    -0.229842822560E+04   -0.64261E-06   -0.28105E-05  2728   0.290E-03
   6 F= -.23187155E+04 E0= -.23187155E+04  d E =-.638587E-01  mag=     3.0000
       N       E                     dE             d eps       ncg     rms          rms(c)
DAV:   1    -0.229842871393E+04   -0.48897E-03   -0.49403E-01  4496   0.691E-01    0.312E-01
RMM:   2    -0.229843337602E+04   -0.46621E-02   -0.58635E-02  5759   0.150E-01    0.153E-01
RMM:   3    -0.229843332444E+04    0.51579E-04   -0.45598E-03  5079   0.523E-02    0.143E-01
RMM:   4    -0.229843335742E+04   -0.32980E-04   -0.90139E-04  4476   0.155E-02    0.160E-01
RMM:   5    -0.229843312234E+04    0.23508E-03   -0.47955E-04  4748   0.151E-02    0.448E-02
RMM:   6    -0.229843309643E+04    0.25912E-04   -0.59791E-05  3087   0.758E-03    0.150E-02
RMM:   7    -0.229843308949E+04    0.69404E-05   -0.20344E-05  2893   0.425E-03
   7 F= -.23187203E+04 E0= -.23187203E+04  d E =-.478951E-02  mag=     3.0000
       N       E                     dE             d eps       ncg     rms          rms(c)
DAV:   1    -0.229843310775E+04   -0.11314E-04   -0.63823E-03  5128   0.784E-02    0.356E-02
RMM:   2    -0.229843316806E+04   -0.60310E-04   -0.75874E-04  5299   0.182E-02    0.191E-02
RMM:   3    -0.229843317090E+04   -0.28430E-05   -0.61941E-05  2861   0.721E-03
   8 F= -.23187204E+04 E0= -.23187204E+04  d E =-.487920E-02  mag=     3.0000
       N       E                     dE             d eps       ncg     rms          rms(c)
DAV:   1    -0.229843013315E+04    0.30349E-02   -0.32241E-01  4448   0.568E-01    0.223E-01
RMM:   2    -0.229843614418E+04   -0.60110E-02   -0.51929E-02  5900   0.124E-01    0.433E-01
RMM:   3    -0.229843483721E+04    0.13070E-02   -0.46370E-03  5104   0.413E-02    0.134E-01
RMM:   4    -0.229843467163E+04    0.16559E-03   -0.61504E-04  4211   0.116E-02    0.479E-02
RMM:   5    -0.229843463431E+04    0.37316E-04   -0.15078E-04  3961   0.890E-03    0.331E-02
RMM:   6    -0.229843462304E+04    0.11266E-04   -0.47077E-05  3189   0.688E-03    0.855E-03
RMM:   7    -0.229843462289E+04    0.15317E-06   -0.12918E-05  2832   0.495E-03
   9 F= -.23187221E+04 E0= -.23187221E+04  d E =-.166108E-02  mag=     3.0000
       N       E                     dE             d eps       ncg     rms          rms(c)
DAV:   1    -0.229843462484E+04   -0.17967E-05   -0.28802E-05  3848   0.608E-03    0.285E-03
RMM:   2    -0.229843462527E+04   -0.43158E-06   -0.50801E-06  2747   0.272E-03
  10 F= -.23187221E+04 E0= -.23187221E+04  d E =-.166177E-02  mag=     3.0000
       N       E                     dE             d eps       ncg     rms          rms(c)
DAV:   1    -0.229843333516E+04    0.12897E-02   -0.16354E-01  4448   0.417E-01    0.138E-01
RMM:   2    -0.229843680371E+04   -0.34685E-02   -0.23903E-02  5807   0.857E-02    0.424E-01
RMM:   3    -0.229843536722E+04    0.14365E-02   -0.18569E-03  4210   0.288E-02    0.618E-02
RMM:   4    -0.229843534659E+04    0.20627E-04   -0.30516E-04  3162   0.767E-03    0.352E-02
RMM:   5    -0.229843533142E+04    0.15174E-04   -0.54211E-05  3260   0.617E-03    0.377E-02
RMM:   6    -0.229843531779E+04    0.13632E-04   -0.34050E-05  2930   0.575E-03    0.479E-03
RMM:   7    -0.229843531800E+04   -0.21473E-06   -0.64664E-06  2810   0.359E-03
  11 F= -.23187231E+04 E0= -.23187231E+04  d E =-.104721E-02  mag=     3.0000
       N       E                     dE             d eps       ncg     rms          rms(c)
DAV:   1    -0.229843377166E+04    0.15461E-02   -0.12280E-01  4416   0.362E-01    0.121E-01
RMM:   2    -0.229843643261E+04   -0.26609E-02   -0.18118E-02  5930   0.750E-02    0.376E-01
RMM:   3    -0.229843530202E+04    0.11306E-02   -0.14433E-03  3971   0.247E-02    0.548E-02
RMM:   4    -0.229843528491E+04    0.17105E-04   -0.24714E-04  3051   0.699E-03    0.307E-02
RMM:   5    -0.229843527386E+04    0.11048E-04   -0.41177E-05  3053   0.551E-03    0.344E-02
RMM:   6    -0.229843526219E+04    0.11673E-04   -0.27940E-05  2902   0.534E-03    0.432E-03
RMM:   7    -0.229843526258E+04   -0.39238E-06   -0.59838E-06  2804   0.342E-03
  12 F= -.23187234E+04 E0= -.23187234E+04  d E =-.129887E-02  mag=     3.0000
       N       E                     dE             d eps       ncg     rms          rms(c)
DAV:   1    -0.229843487118E+04    0.39101E-03   -0.11323E-01  4416   0.357E-01    0.102E-01
RMM:   2    -0.229843627066E+04   -0.13995E-02   -0.11254E-02  5738   0.681E-02    0.230E-01
RMM:   3    -0.229843588576E+04    0.38490E-03   -0.94117E-04  3890   0.239E-02    0.487E-02
RMM:   4    -0.229843586208E+04    0.23683E-04   -0.11715E-04  2986   0.633E-03    0.240E-02
RMM:   5    -0.229843585226E+04    0.98141E-05   -0.29154E-05  2930   0.499E-03
  13 F= -.23187241E+04 E0= -.23187241E+04  d E =-.705564E-03  mag=     3.0000
       N       E                     dE             d eps       ncg     rms          rms(c)
DAV:   1    -0.229843500282E+04    0.85926E-03   -0.10759E-01  4432   0.347E-01    0.986E-02
RMM:   2    -0.229843628896E+04   -0.12861E-02   -0.10491E-02  6006   0.670E-02    0.216E-01
RMM:   3    -0.229843595548E+04    0.33347E-03   -0.87153E-04  3792   0.212E-02    0.498E-02
RMM:   4    -0.229843593139E+04    0.24091E-04   -0.10777E-04  2952   0.640E-03    0.238E-02
RMM:   5    -0.229843592096E+04    0.10435E-04   -0.30168E-05  2983   0.510E-03    0.177E-02
RMM:   6    -0.229843591728E+04    0.36720E-05   -0.12499E-05  2830   0.473E-03
  14 F= -.23187243E+04 E0= -.23187243E+04  d E =-.884200E-03  mag=     3.0000
       N       E                     dE             d eps       ncg     rms          rms(c)
DAV:   1    -0.229843624948E+04   -0.32853E-03   -0.82507E-02  4448   0.301E-01    0.658E-02
RMM:   2    -0.229843647821E+04   -0.22872E-03   -0.25849E-03  5140   0.473E-02    0.321E-02
RMM:   3    -0.229843646579E+04    0.12417E-04   -0.15869E-04  3921   0.191E-02    0.247E-02
RMM:   4    -0.229843647211E+04   -0.63255E-05   -0.33729E-05  2872   0.502E-03
  15 F= -.23187248E+04 E0= -.23187248E+04  d E =-.575657E-03  mag=     3.0000
       N       E                     dE             d eps       ncg     rms          rms(c)
DAV:   1    -0.229843640613E+04    0.59663E-04   -0.93466E-02  4416   0.320E-01    0.717E-02
RMM:   2    -0.229843666335E+04   -0.25723E-03   -0.28813E-03  4963   0.490E-02    0.483E-02
RMM:   3    -0.229843668756E+04   -0.24209E-04   -0.24469E-04  4087   0.224E-02    0.778E-02
RMM:   4    -0.229843663892E+04    0.48643E-04   -0.46691E-05  2887   0.551E-03    0.228E-02
RMM:   5    -0.229843663231E+04    0.66034E-05   -0.32097E-05  3047   0.563E-03
  16 F= -.23187250E+04 E0= -.23187250E+04  d E =-.758308E-03  mag=     3.0000
       N       E                     dE             d eps       ncg     rms          rms(c)
DAV:   1    -0.229843639218E+04    0.24674E-03   -0.11661E-01  4416   0.360E-01    0.906E-02
RMM:   2    -0.229843717202E+04   -0.77984E-03   -0.75304E-03  5819   0.615E-02    0.114E-01
RMM:   3    -0.229843715922E+04    0.12803E-04   -0.80284E-04  4017   0.237E-02    0.851E-02
RMM:   4    -0.229843709902E+04    0.60199E-04   -0.82556E-05  2886   0.677E-03    0.253E-02
RMM:   5    -0.229843708769E+04    0.11329E-04   -0.46566E-05  3071   0.567E-03    0.103E-02
RMM:   6    -0.229843708794E+04   -0.25105E-06   -0.93995E-06  2823   0.468E-03
  17 F= -.23187255E+04 E0= -.23187255E+04  d E =-.459971E-03  mag=     3.0000
       N       E                     dE             d eps       ncg     rms          rms(c)
DAV:   1    -0.229843699381E+04    0.93882E-04   -0.18189E-02  4656   0.143E-01    0.363E-02
RMM:   2    -0.229843712097E+04   -0.12717E-03   -0.12073E-03  5577   0.248E-02    0.484E-02
RMM:   3    -0.229843711582E+04    0.51539E-05   -0.13092E-04  2932   0.103E-02    0.318E-02
RMM:   4    -0.229843710764E+04    0.81771E-05   -0.13812E-05  2815   0.328E-03
  18 F= -.23187255E+04 E0= -.23187255E+04  d E =-.481515E-03  mag=     3.0000
       N       E                     dE             d eps       ncg     rms          rms(c)
DAV:   1    -0.229843698052E+04    0.13530E-03   -0.55628E-02  4416   0.255E-01    0.700E-02
RMM:   2    -0.229843733111E+04   -0.35060E-03   -0.37743E-03  5389   0.432E-02    0.482E-02
RMM:   3    -0.229843738448E+04   -0.53362E-04   -0.41171E-04  3722   0.192E-02    0.855E-02
RMM:   4    -0.229843732858E+04    0.55894E-04   -0.55705E-05  2843   0.536E-03    0.188E-02
RMM:   5    -0.229843732287E+04    0.57074E-05   -0.25758E-05  2862   0.436E-03
  19 F= -.23187257E+04 E0= -.23187257E+04  d E =-.180172E-03  mag=     3.0000
       N       E                     dE             d eps       ncg     rms          rms(c)
DAV:   1    -0.229843732208E+04    0.65030E-05   -0.30447E-04  5080   0.194E-02    0.643E-03
RMM:   2    -0.229843732426E+04   -0.21778E-05   -0.25069E-05  2756   0.437E-03
  20 F= -.23187257E+04 E0= -.23187257E+04  d E =-.178839E-03  mag=     3.0000
       N       E                     dE             d eps       ncg     rms          rms(c)
DAV:   1    -0.229843720070E+04    0.12138E-03   -0.44340E-02  4416   0.224E-01    0.566E-02
RMM:   2    -0.229843749150E+04   -0.29080E-03   -0.31656E-03  5627   0.390E-02    0.264E-02
RMM:   3    -0.229843750559E+04   -0.14091E-04   -0.25527E-04  3463   0.156E-02    0.274E-02
RMM:   4    -0.229843750510E+04    0.48795E-06   -0.36578E-05  2850   0.417E-03
  21 F= -.23187259E+04 E0= -.23187259E+04  d E =-.190178E-03  mag=     3.0000
       N       E                     dE             d eps       ncg     rms          rms(c)
DAV:   1    -0.229843738436E+04    0.12123E-03   -0.22685E-02  4416   0.160E-01    0.408E-02
RMM:   2    -0.229843752890E+04   -0.14454E-03   -0.15867E-03  5555   0.273E-02    0.210E-02
RMM:   3    -0.229843753726E+04   -0.83565E-05   -0.14261E-04  2962   0.113E-02    0.239E-02
RMM:   4    -0.229843753560E+04    0.16525E-05   -0.20609E-05  2838   0.338E-03
  22 F= -.23187259E+04 E0= -.23187259E+04  d E =-.227511E-03  mag=     3.0000
       N       E                     dE             d eps       ncg     rms          rms(c)
DAV:   1    -0.229843756094E+04   -0.23688E-04   -0.18920E-02  4416   0.143E-01    0.350E-02
RMM:   2    -0.229843769816E+04   -0.13722E-03   -0.14757E-03  5546   0.251E-02    0.217E-02
RMM:   3    -0.229843771070E+04   -0.12536E-04   -0.12488E-04  2917   0.101E-02    0.347E-02
RMM:   4    -0.229843770367E+04    0.70288E-05   -0.19291E-05  2827   0.317E-03
  23 F= -.23187261E+04 E0= -.23187261E+04  d E =-.175325E-03  mag=     3.0000
       N       E                     dE             d eps       ncg     rms          rms(c)
DAV:   1    -0.229843669904E+04    0.10117E-02   -0.17157E-01  4416   0.431E-01    0.105E-01
RMM:   2    -0.229843792976E+04   -0.12307E-02   -0.13424E-02  5433   0.742E-02    0.489E-02
RMM:   3    -0.229843797958E+04   -0.49823E-04   -0.10674E-03  4205   0.259E-02    0.340E-02
RMM:   4    -0.229843799723E+04   -0.17652E-04   -0.15121E-04  3020   0.697E-03    0.575E-02
RMM:   5    -0.229843796941E+04    0.27822E-04   -0.33624E-05  2847   0.493E-03    0.169E-02
RMM:   6    -0.229843796807E+04    0.13357E-05   -0.18364E-05  2843   0.415E-03
  24 F= -.23187264E+04 E0= -.23187264E+04  d E =-.461890E-03  mag=     3.0000
       N       E                     dE             d eps       ncg     rms          rms(c)
DAV:   1    -0.229843774601E+04    0.22340E-03   -0.28772E-02  4480   0.177E-01    0.439E-02
RMM:   2    -0.229843795830E+04   -0.21229E-03   -0.22852E-03  5817   0.323E-02    0.243E-02
RMM:   3    -0.229843798020E+04   -0.21901E-04   -0.19698E-04  3010   0.107E-02    0.425E-02
RMM:   4    -0.229843796608E+04    0.14126E-04   -0.27661E-05  2839   0.388E-03    0.132E-02
RMM:   5    -0.229843796410E+04    0.19770E-05   -0.57924E-06  2803   0.224E-03
  25 F= -.23187264E+04 E0= -.23187264E+04  d E =-.467156E-03  mag=     3.0000
       N       E                     dE             d eps       ncg     rms          rms(c)
DAV:   1    -0.229843792470E+04    0.41380E-04   -0.19115E-02  4416   0.141E-01    0.350E-02
RMM:   2    -0.229843809239E+04   -0.16769E-03   -0.18125E-03  5648   0.255E-02    0.163E-02
RMM:   3    -0.229843810251E+04   -0.10125E-04   -0.15212E-04  2882   0.930E-03    0.118E-02
RMM:   4    -0.229843810352E+04   -0.10107E-05   -0.18992E-05  2831   0.261E-03
  26 F= -.23187265E+04 E0= -.23187265E+04  d E =-.131349E-03  mag=     3.0000
       N       E                     dE             d eps       ncg     rms          rms(c)
DAV:   1    -0.229843678892E+04    0.13136E-02   -0.17354E-01  4400   0.426E-01    0.105E-01
RMM:   2    -0.229843834013E+04   -0.15512E-02   -0.16502E-02  5575   0.755E-02    0.773E-02
RMM:   3    -0.229843849019E+04   -0.15006E-03   -0.14335E-03  4078   0.262E-02    0.117E-01
RMM:   4    -0.229843840043E+04    0.89760E-04   -0.19484E-04  2977   0.712E-03    0.317E-02
RMM:   5    -0.229843839014E+04    0.10285E-04   -0.29104E-05  2838   0.471E-03    0.223E-02
RMM:   6    -0.229843838586E+04    0.42851E-05   -0.21247E-05  2873   0.479E-03
  27 F= -.23187268E+04 E0= -.23187268E+04  d E =-.389855E-03  mag=     3.0000
       N       E                     dE             d eps       ncg     rms          rms(c)
DAV:   1    -0.229843194925E+04    0.64409E-02   -0.69425E-01  4400   0.852E-01    0.209E-01
RMM:   2    -0.229843807533E+04   -0.61261E-02   -0.66186E-02  5428   0.151E-01    0.100E-01
RMM:   3    -0.229843841353E+04   -0.33820E-03   -0.54180E-03  4912   0.507E-02    0.896E-02
RMM:   4    -0.229843844844E+04   -0.34912E-04   -0.68221E-04  3740   0.112E-02    0.805E-02
RMM:   5    -0.229843840302E+04    0.45421E-04   -0.11560E-04  2990   0.806E-03    0.569E-02
RMM:   6    -0.229843837223E+04    0.30790E-04   -0.81991E-05  3877   0.768E-03    0.148E-02
RMM:   7    -0.229843837227E+04   -0.42899E-07   -0.92735E-06  2819   0.573E-03
  28 F= -.23187267E+04 E0= -.23187267E+04  d E =-.330273E-03  mag=     3.0000
       N       E                     dE             d eps       ncg     rms          rms(c)
DAV:   1    -0.229843733434E+04    0.10379E-02   -0.12403E-01  4416   0.360E-01    0.874E-02
RMM:   2    -0.229843841410E+04   -0.10798E-02   -0.11664E-02  5496   0.634E-02    0.418E-02
RMM:   3    -0.229843847571E+04   -0.61610E-04   -0.97851E-04  3852   0.222E-02    0.343E-02
RMM:   4    -0.229843848272E+04   -0.70126E-05   -0.11750E-04  2874   0.536E-03    0.327E-02
RMM:   5    -0.229843847697E+04    0.57496E-05   -0.22312E-05  2810   0.383E-03
  29 F= -.23187268E+04 E0= -.23187268E+04  d E =-.454103E-03  mag=     3.0000
       N       E                     dE             d eps       ncg     rms          rms(c)
DAV:   1    -0.229843801118E+04    0.47154E-03   -0.65378E-02  4416   0.258E-01    0.715E-02
RMM:   2    -0.229843876615E+04   -0.75496E-03   -0.77962E-03  5593   0.484E-02    0.724E-02
RMM:   3    -0.229843882289E+04   -0.56743E-04   -0.68662E-04  3554   0.182E-02    0.823E-02
RMM:   4    -0.229843877516E+04    0.47729E-04   -0.86593E-05  2874   0.518E-03    0.184E-02
RMM:   5    -0.229843877160E+04    0.35633E-05   -0.13051E-05  2822   0.294E-03
  30 F= -.23187271E+04 E0= -.23187271E+04  d E =-.260154E-03  mag=     3.0000
       N       E                     dE             d eps       ncg     rms          rms(c)
DAV:   1    -0.229843245265E+04    0.63225E-02   -0.57718E-01  4400   0.765E-01    0.210E-01
RMM:   2    -0.229843896070E+04   -0.65081E-02   -0.68707E-02  5604   0.142E-01    0.166E-01
RMM:   3    -0.229843957582E+04   -0.61511E-03   -0.59760E-03  4947   0.489E-02    0.229E-01
RMM:   4    -0.229843924005E+04    0.33577E-03   -0.79373E-04  3826   0.124E-02    0.632E-02
RMM:   5    -0.229843920873E+04    0.31320E-04   -0.11301E-04  2959   0.748E-03    0.431E-02
RMM:   6    -0.229843919210E+04    0.16631E-04   -0.76596E-05  3763   0.750E-03    0.179E-02
RMM:   7    -0.229843919106E+04    0.10370E-05   -0.98143E-06  2814   0.556E-03
  31 F= -.23187274E+04 E0= -.23187274E+04  d E =-.577218E-03  mag=     3.0000
       N       E                     dE             d eps       ncg     rms          rms(c)
DAV:   1    -0.229843807941E+04    0.11127E-02   -0.10762E-01  4416   0.324E-01    0.101E-01
RMM:   2    -0.229843970976E+04   -0.16304E-02   -0.15977E-02  5816   0.644E-02    0.143E-01
RMM:   3    -0.229843970045E+04    0.93161E-05   -0.14720E-03  3854   0.232E-02    0.862E-02
RMM:   4    -0.229843965633E+04    0.44119E-04   -0.17088E-04  2891   0.638E-03    0.257E-02
RMM:   5    -0.229843964924E+04    0.70912E-05   -0.23212E-05  2835   0.387E-03
  32 F= -.23187278E+04 E0= -.23187278E+04  d E =-.381195E-03  mag=     3.0000
       N       E                     dE             d eps       ncg     rms          rms(c)
DAV:   1    -0.229843493974E+04    0.47166E-02   -0.34867E-01  4400   0.584E-01    0.179E-01
RMM:   2    -0.229844006694E+04   -0.51272E-02   -0.51342E-02  5906   0.116E-01    0.223E-01
RMM:   3    -0.229844023788E+04   -0.17094E-03   -0.49499E-03  4839   0.407E-02    0.168E-01
RMM:   4    -0.229844006071E+04    0.17716E-03   -0.57248E-04  3232   0.104E-02    0.497E-02
RMM:   5    -0.229844003527E+04    0.25441E-04   -0.76313E-05  2901   0.633E-03    0.292E-02
RMM:   6    -0.229844002908E+04    0.61888E-05   -0.43141E-05  3060   0.615E-03
  33 F= -.23187280E+04 E0= -.23187280E+04  d E =-.622898E-03  mag=     3.0000
       N       E                     dE             d eps       ncg     rms          rms(c)
DAV:   1    -0.229843799132E+04    0.20439E-02   -0.17246E-01  4400   0.410E-01    0.131E-01
RMM:   2    -0.229844068638E+04   -0.26951E-02   -0.26461E-02  6081   0.832E-02    0.183E-01
RMM:   3    -0.229844068840E+04   -0.20210E-05   -0.25174E-03  4323   0.280E-02    0.115E-01
RMM:   4    -0.229844060800E+04    0.80401E-04   -0.29078E-04  2977   0.793E-03    0.333E-02
RMM:   5    -0.229844059557E+04    0.12422E-04   -0.38702E-05  2850   0.486E-03    0.182E-02
RMM:   6    -0.229844059377E+04    0.18003E-05   -0.17541E-05  2830   0.458E-03
  34 F= -.23187284E+04 E0= -.23187284E+04  d E =-.409546E-03  mag=     3.0000
       N       E                     dE             d eps       ncg     rms          rms(c)
DAV:   1    -0.229843704066E+04    0.35549E-02   -0.25747E-01  4400   0.501E-01    0.160E-01
RMM:   2    -0.229844105879E+04   -0.40181E-02   -0.39399E-02  5976   0.101E-01    0.223E-01
RMM:   3    -0.229844106771E+04   -0.89183E-05   -0.38436E-03  4663   0.374E-02    0.139E-01
RMM:   4    -0.229844094846E+04    0.11925E-03   -0.42591E-04  3093   0.928E-03    0.404E-02
RMM:   5    -0.229844092937E+04    0.19082E-04   -0.52171E-05  2867   0.578E-03    0.220E-02
RMM:   6    -0.229844092581E+04    0.35611E-05   -0.27804E-05  2874   0.551E-03
  35 F= -.23187286E+04 E0= -.23187286E+04  d E =-.552661E-03  mag=     3.0000
       N       E                     dE             d eps       ncg     rms          rms(c)
DAV:   1    -0.229843872883E+04    0.22005E-02   -0.19749E-01  4400   0.439E-01    0.133E-01
RMM:   2    -0.229844139170E+04   -0.26629E-02   -0.27580E-02  5987   0.861E-02    0.131E-01
RMM:   3    -0.229844161646E+04   -0.22476E-03   -0.25987E-03  4431   0.299E-02    0.149E-01
RMM:   4    -0.229844146802E+04    0.14844E-03   -0.32736E-04  3033   0.845E-03    0.362E-02
RMM:   5    -0.229844145628E+04    0.11739E-04   -0.45027E-05  2844   0.489E-03    0.234E-02
RMM:   6    -0.229844145142E+04    0.48574E-05   -0.24708E-05  2869   0.476E-03
  36 F= -.23187290E+04 E0= -.23187290E+04  d E =-.392858E-03  mag=     3.0000
       N       E                     dE             d eps       ncg     rms          rms(c)
DAV:   1    -0.229843708230E+04    0.43740E-02   -0.33756E-01  4400   0.574E-01    0.173E-01
RMM:   2    -0.229844161494E+04   -0.45326E-02   -0.47095E-02  5953   0.112E-01    0.163E-01
RMM:   3    -0.229844202661E+04   -0.41167E-03   -0.44555E-03  4880   0.406E-02    0.195E-01
RMM:   4    -0.229844177242E+04    0.25419E-03   -0.55958E-04  3244   0.106E-02    0.481E-02
RMM:   5    -0.229844175160E+04    0.20818E-04   -0.75222E-05  2870   0.621E-03    0.309E-02
RMM:   6    -0.229844174271E+04    0.88899E-05   -0.44562E-05  3078   0.608E-03
  37 F= -.23187291E+04 E0= -.23187291E+04  d E =-.511420E-03  mag=     3.0000
       N       E                     dE             d eps       ncg     rms          rms(c)
DAV:   1    -0.229843979041E+04    0.19612E-02   -0.19317E-01  4400   0.429E-01    0.125E-01
RMM:   2    -0.229844205013E+04   -0.22597E-02   -0.24400E-02  6010   0.826E-02    0.611E-02
RMM:   3    -0.229844221270E+04   -0.16256E-03   -0.20302E-03  4243   0.266E-02    0.649E-02
RMM:   4    -0.229844222109E+04   -0.83963E-05   -0.27009E-04  2903   0.706E-03    0.474E-02
RMM:   5    -0.229844220382E+04    0.17275E-04   -0.34908E-05  2824   0.447E-03    0.295E-02
RMM:   6    -0.229844219657E+04    0.72425E-05   -0.23342E-05  2865   0.446E-03
  38 F= -.23187295E+04 E0= -.23187295E+04  d E =-.417897E-03  mag=     3.0000
       N       E                     dE             d eps       ncg     rms          rms(c)
DAV:   1    -0.229843907237E+04    0.31314E-02   -0.26559E-01  4400   0.503E-01    0.146E-01
RMM:   2    -0.229844217825E+04   -0.31059E-02   -0.33540E-02  5903   0.956E-02    0.684E-02
RMM:   3    -0.229844238850E+04   -0.21025E-03   -0.28444E-03  4427   0.331E-02    0.497E-02
RMM:   4    -0.229844241276E+04   -0.24261E-04   -0.34534E-04  2936   0.790E-03    0.502E-02
RMM:   5    -0.229844240373E+04    0.90317E-05   -0.53865E-05  2833   0.548E-03
  39 F= -.23187297E+04 E0= -.23187297E+04  d E =-.583808E-03  mag=     3.0000
       N       E                     dE             d eps       ncg     rms          rms(c)
DAV:   1    -0.229844156710E+04    0.84566E-03   -0.11490E-01  4416   0.336E-01    0.102E-01
RMM:   2    -0.229844273029E+04   -0.11632E-02   -0.12536E-02  5846   0.636E-02    0.635E-02
RMM:   3    -0.229844290768E+04   -0.17740E-03   -0.13023E-03  4003   0.246E-02    0.118E-01
RMM:   4    -0.229844279268E+04    0.11500E-03   -0.15494E-04  2938   0.689E-03    0.282E-02
RMM:   5    -0.229844278757E+04    0.51112E-05   -0.29937E-05  2847   0.438E-03
  40 F= -.23187301E+04 E0= -.23187301E+04  d E =-.389250E-03  mag=     3.0000
       N       E                     dE             d eps       ncg     rms          rms(c)
DAV:   1    -0.229844191462E+04    0.87806E-03   -0.87932E-02  4432   0.294E-01    0.887E-02
RMM:   2    -0.229844281205E+04   -0.89743E-03   -0.97092E-03  6011   0.562E-02    0.477E-02
RMM:   3    -0.229844291529E+04   -0.10324E-03   -0.89181E-04  3661   0.194E-02    0.817E-02
RMM:   4    -0.229844286268E+04    0.52607E-04   -0.11510E-04  2889   0.600E-03    0.270E-02
RMM:   5    -0.229844285722E+04    0.54546E-05   -0.19137E-05  2840   0.368E-03
  41 F= -.23187301E+04 E0= -.23187301E+04  d E =-.463928E-03  mag=     3.0000
       N       E                     dE             d eps       ncg     rms          rms(c)
DAV:   1    -0.229844184057E+04    0.10221E-02   -0.13429E-01  4400   0.363E-01    0.105E-01
RMM:   2    -0.229844315412E+04   -0.13135E-02   -0.14126E-02  5825   0.677E-02    0.597E-02
RMM:   3    -0.229844331497E+04   -0.16085E-03   -0.13039E-03  4006   0.249E-02    0.103E-01
RMM:   4    -0.229844322941E+04    0.85561E-04   -0.16826E-04  2970   0.698E-03    0.317E-02
RMM:   5    -0.229844322254E+04    0.68658E-05   -0.28100E-05  2844   0.436E-03
  42 F= -.23187305E+04 E0= -.23187305E+04  d E =-.350901E-03  mag=     3.0000
       N       E                     dE             d eps       ncg     rms          rms(c)
DAV:   1    -0.229844236562E+04    0.86379E-03   -0.89220E-02  4416   0.296E-01    0.862E-02
RMM:   2    -0.229844323695E+04   -0.87133E-03   -0.93746E-03  5999   0.558E-02    0.490E-02
RMM:   3    -0.229844334540E+04   -0.10844E-03   -0.87253E-04  3606   0.189E-02    0.853E-02
RMM:   4    -0.229844328710E+04    0.58296E-04   -0.11290E-04  2899   0.592E-03    0.261E-02
RMM:   5    -0.229844328272E+04    0.43826E-05   -0.19517E-05  2834   0.359E-03
  43 F= -.23187305E+04 E0= -.23187305E+04  d E =-.399721E-03  mag=     3.0000
       N       E                     dE             d eps       ncg     rms          rms(c)
DAV:   1    -0.229844252406E+04    0.76304E-03   -0.10730E-01  4416   0.327E-01    0.920E-02
RMM:   2    -0.229844359015E+04   -0.10661E-02   -0.11461E-02  5869   0.607E-02    0.433E-02
RMM:   3    -0.229844365801E+04   -0.67866E-04   -0.96835E-04  3774   0.212E-02    0.282E-02
RMM:   4    -0.229844366020E+04   -0.21853E-05   -0.10928E-04  2861   0.541E-03    0.179E-02
RMM:   5    -0.229844366070E+04   -0.49864E-06   -0.21230E-05  2861   0.421E-03
  44 F= -.23187309E+04 E0= -.23187309E+04  d E =-.361746E-03  mag=     3.0000
       N       E                     dE             d eps       ncg     rms          rms(c)
DAV:   1    -0.229844120698E+04    0.24532E-02   -0.24817E-01  4432   0.497E-01    0.139E-01
RMM:   2    -0.229844368884E+04   -0.24819E-02   -0.26623E-02  5830   0.931E-02    0.726E-02
RMM:   3    -0.229844388049E+04   -0.19165E-03   -0.22239E-03  4367   0.327E-02    0.935E-02
RMM:   4    -0.229844385643E+04    0.24058E-04   -0.29881E-04  2986   0.823E-03    0.519E-02
RMM:   5    -0.229844383430E+04    0.22131E-04   -0.49164E-05  2853   0.569E-03    0.315E-02
RMM:   6    -0.229844382634E+04    0.79602E-05   -0.29813E-05  2944   0.546E-03
  45 F= -.23187310E+04 E0= -.23187310E+04  d E =-.503602E-03  mag=     3.0000
       N       E                     dE             d eps       ncg     rms          rms(c)
DAV:   1    -0.229844262966E+04    0.12046E-02   -0.14865E-01  4432   0.389E-01    0.110E-01
RMM:   2    -0.229844419618E+04   -0.15665E-02   -0.16687E-02  5959   0.730E-02    0.699E-02
RMM:   3    -0.229844435283E+04   -0.15666E-03   -0.15219E-03  4016   0.241E-02    0.106E-01
RMM:   4    -0.229844428672E+04    0.66116E-04   -0.19968E-04  2948   0.716E-03    0.364E-02
RMM:   5    -0.229844427460E+04    0.12115E-04   -0.33495E-05  2838   0.460E-03    0.228E-02
RMM:   6    -0.229844426974E+04    0.48631E-05   -0.19260E-05  2865   0.448E-03
  46 F= -.23187315E+04 E0= -.23187315E+04  d E =-.433329E-03  mag=     3.0000
       N       E                     dE             d eps       ncg     rms          rms(c)
DAV:   1    -0.229844263280E+04    0.16418E-02   -0.15945E-01  4448   0.402E-01    0.114E-01
RMM:   2    -0.229844432038E+04   -0.16876E-02   -0.17882E-02  5942   0.754E-02    0.800E-02
RMM:   3    -0.229844450165E+04   -0.18127E-03   -0.16624E-03  4062   0.265E-02    0.121E-01
RMM:   4    -0.229844440655E+04    0.95093E-04   -0.21798E-04  2966   0.761E-03    0.357E-02
RMM:   5    -0.229844439417E+04    0.12379E-04   -0.35783E-05  2843   0.490E-03    0.232E-02
RMM:   6    -0.229844438868E+04    0.54920E-05   -0.21233E-05  2869   0.480E-03
  47 F= -.23187316E+04 E0= -.23187316E+04  d E =-.542405E-03  mag=     3.0000
       N       E                     dE             d eps       ncg     rms          rms(c)
DAV:   1    -0.229844305626E+04    0.13379E-02   -0.14835E-01  4416   0.391E-01    0.120E-01
RMM:   2    -0.229844480930E+04   -0.17530E-02   -0.18014E-02  5930   0.753E-02    0.114E-01
RMM:   3    -0.229844496261E+04   -0.15331E-03   -0.17348E-03  4189   0.266E-02    0.134E-01
RMM:   4    -0.229844483412E+04    0.12850E-03   -0.21930E-04  2993   0.793E-03    0.328E-02
RMM:   5    -0.229844482267E+04    0.11441E-04   -0.41142E-05  2861   0.525E-03    0.199E-02
RMM:   6    -0.229844481973E+04    0.29409E-05   -0.18924E-05  2848   0.493E-03
  48 F= -.23187320E+04 E0= -.23187320E+04  d E =-.405181E-03  mag=     3.0000
       N       E                     dE             d eps       ncg     rms          rms(c)
DAV:   1    -0.229844410925E+04    0.71342E-03   -0.63595E-02  4464   0.256E-01    0.789E-02
RMM:   2    -0.229844487172E+04   -0.76247E-03   -0.77997E-03  6075   0.503E-02    0.777E-02
RMM:   3    -0.229844493380E+04   -0.62079E-04   -0.75482E-04  3531   0.172E-02    0.882E-02
RMM:   4    -0.229844487832E+04    0.55480E-04   -0.94830E-05  2870   0.581E-03    0.214E-02
RMM:   5    -0.229844487327E+04    0.50448E-05   -0.18677E-05  2840   0.367E-03
  49 F= -.23187320E+04 E0= -.23187320E+04  d E =-.441983E-03  mag=     3.0000
       N       E                     dE             d eps       ncg     rms          rms(c)
DAV:   1    -0.229844372411E+04    0.11542E-02   -0.11789E-01  4400   0.348E-01    0.110E-01
RMM:   2    -0.229844517791E+04   -0.14538E-02   -0.14974E-02  5912   0.679E-02    0.102E-01
RMM:   3    -0.229844530576E+04   -0.12785E-03   -0.14418E-03  3975   0.249E-02    0.119E-01
RMM:   4    -0.229844520790E+04    0.97866E-04   -0.18636E-04  2959   0.761E-03    0.325E-02
RMM:   5    -0.229844519759E+04    0.10305E-04   -0.36674E-05  2838   0.507E-03    0.201E-02
RMM:   6    -0.229844519384E+04    0.37535E-05   -0.18014E-05  2844   0.478E-03
  50 F= -.23187323E+04 E0= -.23187323E+04  d E =-.291631E-03  mag=     3.0000
       N       E                     dE             d eps       ncg     rms          rms(c)
DAV:   1    -0.229844502673E+04    0.17086E-03   -0.14357E-02  4720   0.122E-01    0.392E-02
RMM:   2    -0.229844521362E+04   -0.18689E-03   -0.18871E-03  5695   0.255E-02    0.437E-02
RMM:   3    -0.229844522342E+04   -0.97934E-05   -0.17504E-04  2890   0.893E-03    0.419E-02
RMM:   4    -0.229844521105E+04    0.12367E-04   -0.23295E-05  2830   0.368E-03    0.106E-02
RMM:   5    -0.229844520968E+04    0.13698E-05   -0.52073E-06  2790   0.209E-03
  51 F= -.23187323E+04 E0= -.23187323E+04  d E =-.297422E-03  mag=     3.0000
       N       E                     dE             d eps       ncg     rms          rms(c)
DAV:   1    -0.229844414896E+04    0.10621E-02   -0.12476E-01  4432   0.363E-01    0.114E-01
RMM:   2    -0.229844550497E+04   -0.13560E-02   -0.14350E-02  5739   0.689E-02    0.791E-02
RMM:   3    -0.229844565992E+04   -0.15495E-03   -0.12837E-03  3952   0.241E-02    0.123E-01
RMM:   4    -0.229844555649E+04    0.10343E-03   -0.18063E-04  2956   0.746E-03    0.332E-02
RMM:   5    -0.229844554741E+04    0.90810E-05   -0.38534E-05  2841   0.504E-03
  52 F= -.23187326E+04 E0= -.23187326E+04  d E =-.317054E-03  mag=     3.0000
       N       E                     dE             d eps       ncg     rms          rms(c)
DAV:   1    -0.229844538953E+04    0.16697E-03   -0.14085E-02  4744   0.122E-01    0.388E-02
RMM:   2    -0.229844554330E+04   -0.15377E-03   -0.16580E-03  5614   0.250E-02    0.183E-02
RMM:   3    -0.229844555321E+04   -0.99117E-05   -0.15395E-04  2851   0.894E-03    0.119E-02
RMM:   4    -0.229844555638E+04   -0.31698E-05   -0.20085E-05  2846   0.315E-03
  53 F= -.23187326E+04 E0= -.23187326E+04  d E =-.319000E-03  mag=     3.0000
       N       E                     dE             d eps       ncg     rms          rms(c)
DAV:   1    -0.229844456276E+04    0.99044E-03   -0.12646E-01  4432   0.366E-01    0.109E-01
RMM:   2    -0.229844579681E+04   -0.12340E-02   -0.13304E-02  5696   0.676E-02    0.575E-02
RMM:   3    -0.229844589315E+04   -0.96337E-04   -0.11255E-03  3965   0.243E-02    0.794E-02
RMM:   4    -0.229844586680E+04    0.26349E-04   -0.15613E-04  2903   0.662E-03    0.381E-02
RMM:   5    -0.229844585531E+04    0.11485E-04   -0.33044E-05  2823   0.479E-03    0.262E-02
RMM:   6    -0.229844584898E+04    0.63359E-05   -0.19052E-05  2847   0.458E-03
  54 F= -.23187329E+04 E0= -.23187329E+04  d E =-.273840E-03  mag=     3.0000
       N       E                     dE             d eps       ncg     rms          rms(c)
DAV:   1    -0.229844568042E+04    0.17489E-03   -0.16753E-02  4624   0.134E-01    0.405E-02
RMM:   2    -0.229844584795E+04   -0.16753E-03   -0.18171E-03  5722   0.266E-02    0.181E-02
RMM:   3    -0.229844585808E+04   -0.10131E-04   -0.14925E-04  2877   0.872E-03    0.186E-02
RMM:   4    -0.229844585903E+04   -0.94617E-06   -0.21299E-05  2845   0.313E-03
  55 F= -.23187329E+04 E0= -.23187329E+04  d E =-.277058E-03  mag=     3.0000
       N       E                     dE             d eps       ncg     rms          rms(c)
DAV:   1    -0.229844477884E+04    0.10792E-02   -0.13980E-01  4400   0.380E-01    0.112E-01
RMM:   2    -0.229844604794E+04   -0.12691E-02   -0.13817E-02  5488   0.697E-02    0.506E-02
RMM:   3    -0.229844610792E+04   -0.59977E-04   -0.10987E-03  4152   0.252E-02    0.447E-02
RMM:   4    -0.229844612033E+04   -0.12414E-04   -0.15663E-04  2890   0.636E-03    0.485E-02
RMM:   5    -0.229844610178E+04    0.18552E-04   -0.41570E-05  2833   0.506E-03    0.278E-02
RMM:   6    -0.229844609497E+04    0.68070E-05   -0.16424E-05  2844   0.459E-03
  56 F= -.23187331E+04 E0= -.23187331E+04  d E =-.235292E-03  mag=     3.0000
       N       E                     dE             d eps       ncg     rms          rms(c)
DAV:   1    -0.229844607917E+04    0.22611E-04   -0.11939E-03  5160   0.356E-02    0.118E-02
RMM:   2    -0.229844609228E+04   -0.13106E-04   -0.12467E-04  3264   0.789E-03    0.162E-02
RMM:   3    -0.229844609242E+04   -0.14136E-06   -0.15993E-05  2624   0.457E-03
  57 F= -.23187331E+04 E0= -.23187331E+04  d E =-.232684E-03  mag=     3.0000
       N       E                     dE             d eps       ncg     rms          rms(c)
DAV:   1    -0.229844608915E+04    0.31265E-05   -0.56714E-04  4336   0.243E-02    0.709E-03
RMM:   2    -0.229844609384E+04   -0.46883E-05   -0.52392E-05  2741   0.509E-03
  58 F= -.23187331E+04 E0= -.23187331E+04  d E =-.234140E-03  mag=     3.0000
       N       E                     dE             d eps       ncg     rms          rms(c)
DAV:   1    -0.229844566170E+04    0.42745E-03   -0.73025E-02  4400   0.278E-01    0.872E-02
RMM:   2    -0.229844629016E+04   -0.62845E-03   -0.69517E-03  5771   0.521E-02    0.354E-02
RMM:   3    -0.229844631798E+04   -0.27822E-04   -0.57574E-04  3785   0.200E-02    0.224E-02
RMM:   4    -0.229844632326E+04   -0.52771E-05   -0.78216E-05  2876   0.538E-03
  59 F= -.23187333E+04 E0= -.23187333E+04  d E =-.201110E-03  mag=     3.0000
       N       E                     dE             d eps       ncg     rms          rms(c)
DAV:   1    -0.229844630952E+04    0.84575E-05   -0.84280E-04  5280   0.305E-02    0.179E-02
RMM:   2    -0.229844633056E+04   -0.21036E-04   -0.94507E-05  3085   0.689E-03    0.441E-02
RMM:   3    -0.229844631606E+04    0.14496E-04   -0.18926E-05  2640   0.409E-03    0.945E-03
RMM:   4    -0.229844631484E+04    0.12162E-05   -0.27803E-06  2625   0.176E-03
  60 F= -.23187333E+04 E0= -.23187333E+04  d E =-.189624E-03  mag=     3.0000
       N       E                     dE             d eps       ncg     rms          rms(c)
DAV:   1    -0.229844599626E+04    0.31980E-03   -0.56528E-02  4416   0.247E-01    0.743E-02
RMM:   2    -0.229844651926E+04   -0.52300E-03   -0.56437E-03  5679   0.459E-02    0.479E-02
RMM:   3    -0.229844657879E+04   -0.59525E-04   -0.49843E-04  3562   0.168E-02    0.785E-02
RMM:   4    -0.229844653530E+04    0.43482E-04   -0.72022E-05  2858   0.532E-03    0.205E-02
RMM:   5    -0.229844653079E+04    0.45151E-05   -0.16914E-05  2828   0.356E-03
  61 F= -.23187335E+04 E0= -.23187335E+04  d E =-.147960E-03  mag=     3.0000
       N       E                     dE             d eps       ncg     rms          rms(c)
DAV:   1    -0.229844650476E+04    0.30542E-04   -0.43332E-03  4864   0.685E-02    0.209E-02
RMM:   2    -0.229844654460E+04   -0.39834E-04   -0.44015E-04  4569   0.142E-02    0.105E-02
RMM:   3    -0.229844654962E+04   -0.50199E-05   -0.48183E-05  2812   0.615E-03
  62 F= -.23187335E+04 E0= -.23187335E+04  d E =-.147547E-03  mag=     3.0000
       N       E                     dE             d eps       ncg     rms          rms(c)
DAV:   1    -0.229844632030E+04    0.22429E-03   -0.43210E-02  4416   0.216E-01    0.605E-02
RMM:   2    -0.229844674641E+04   -0.42611E-03   -0.44573E-03  5765   0.401E-02    0.535E-02
RMM:   3    -0.229844678479E+04   -0.38382E-04   -0.38928E-04  3179   0.128E-02    0.701E-02
RMM:   4    -0.229844674841E+04    0.36384E-04   -0.56577E-05  2849   0.479E-03    0.173E-02
RMM:   5    -0.229844674454E+04    0.38652E-05   -0.13454E-05  2835   0.325E-03
  63 F= -.23187336E+04 E0= -.23187336E+04  d E =-.128428E-03  mag=     3.0000
       N       E                     dE             d eps       ncg     rms          rms(c)
DAV:   1    -0.229844662219E+04    0.12622E-03   -0.17202E-02  4448   0.136E-01    0.380E-02
RMM:   2    -0.229844678563E+04   -0.16344E-03   -0.17597E-03  5671   0.260E-02    0.224E-02
RMM:   3    -0.229844679988E+04   -0.14253E-04   -0.14762E-04  2859   0.919E-03    0.334E-02
RMM:   4    -0.229844679363E+04    0.62489E-05   -0.22364E-05  2837   0.328E-03
  64 F= -.23187336E+04 E0= -.23187336E+04  d E =-.135184E-03  mag=     3.0000
       N       E                     dE             d eps       ncg     rms          rms(c)
DAV:   1    -0.229844652745E+04    0.27243E-03   -0.50582E-02  4400   0.237E-01    0.701E-02
RMM:   2    -0.229844705405E+04   -0.52660E-03   -0.52497E-03  5612   0.443E-02    0.817E-02
RMM:   3    -0.229844706628E+04   -0.12226E-04   -0.46997E-04  3539   0.165E-02    0.726E-02
RMM:   4    -0.229844702594E+04    0.40336E-04   -0.63508E-05  2849   0.513E-03    0.178E-02
RMM:   5    -0.229844702143E+04    0.45106E-05   -0.17453E-05  2836   0.372E-03
  65 F= -.23187338E+04 E0= -.23187338E+04  d E =-.146658E-03  mag=     3.0000
       N       E                     dE             d eps       ncg     rms          rms(c)
DAV:   1    -0.229844695267E+04    0.73272E-04   -0.10747E-02  4624   0.109E-01    0.323E-02
RMM:   2    -0.229844705706E+04   -0.10439E-03   -0.11212E-03  5431   0.219E-02    0.183E-02
RMM:   3    -0.229844706690E+04   -0.98418E-05   -0.97112E-05  2836   0.816E-03
  66 F= -.23187338E+04 E0= -.23187338E+04  d E =-.154323E-03  mag=     3.0000
       N       E                     dE             d eps       ncg     rms          rms(c)
DAV:   1    -0.229844678975E+04    0.26731E-03   -0.40399E-02  4432   0.210E-01    0.649E-02
RMM:   2    -0.229844727218E+04   -0.48242E-03   -0.48852E-03  5744   0.414E-02    0.652E-02
RMM:   3    -0.229844729851E+04   -0.26335E-04   -0.44802E-04  3157   0.139E-02    0.669E-02
RMM:   4    -0.229844726484E+04    0.33674E-04   -0.60816E-05  2844   0.495E-03    0.191E-02
RMM:   5    -0.229844726018E+04    0.46527E-05   -0.14570E-05  2820   0.351E-03
  67 F= -.23187339E+04 E0= -.23187339E+04  d E =-.103774E-03  mag=     3.0000
       N       E                     dE             d eps       ncg     rms          rms(c)
DAV:   1    -0.229844724968E+04    0.15159E-04   -0.25851E-03  5056   0.534E-02    0.170E-02
RMM:   2    -0.229844727857E+04   -0.28891E-04   -0.31186E-04  4013   0.116E-02    0.826E-03
RMM:   3    -0.229844728103E+04   -0.24612E-05   -0.33195E-05  2786   0.572E-03
  68 F= -.23187339E+04 E0= -.23187339E+04  d E =-.101364E-03  mag=     3.0000
       N       E                     dE             d eps       ncg     rms          rms(c)
DAV:   1    -0.229844716526E+04    0.11331E-03   -0.28540E-02  4432   0.179E-01    0.611E-02
RMM:   2    -0.229844751423E+04   -0.34897E-03   -0.30975E-03  5697   0.348E-02    0.976E-02
RMM:   3    -0.229844746445E+04    0.49784E-04   -0.28872E-04  3170   0.125E-02    0.465E-02
RMM:   4    -0.229844744661E+04    0.17834E-04   -0.38983E-05  2842   0.434E-03    0.131E-02
RMM:   5    -0.229844744310E+04    0.35178E-05   -0.11088E-05  2821   0.323E-03
  69 F= -.23187340E+04 E0= -.23187340E+04  d E =-.903814E-04  mag=     3.0000
       N       E                     dE             d eps       ncg     rms          rms(c)
DAV:   1    -0.229844744503E+04    0.15800E-05   -0.10440E-03  5144   0.344E-02    0.113E-02
RMM:   2    -0.229844745550E+04   -0.10464E-04   -0.11384E-04  3269   0.775E-03    0.687E-03
RMM:   3    -0.229844745709E+04   -0.15890E-05   -0.12188E-05  2589   0.439E-03
  70 F= -.23187340E+04 E0= -.23187340E+04  d E =-.902431E-04  mag=     3.0000
       N       E                     dE             d eps       ncg     rms          rms(c)
DAV:   1    -0.229844735325E+04    0.10224E-03   -0.26976E-02  4424   0.172E-01    0.529E-02
RMM:   2    -0.229844761601E+04   -0.26275E-03   -0.27448E-03  5647   0.325E-02    0.435E-02
RMM:   3    -0.229844764185E+04   -0.25849E-04   -0.25623E-04  3018   0.124E-02    0.589E-02
RMM:   4    -0.229844761523E+04    0.26621E-04   -0.37652E-05  2831   0.426E-03    0.145E-02
RMM:   5    -0.229844761234E+04    0.28957E-05   -0.10348E-05  2828   0.284E-03
  71 F= -.23187341E+04 E0= -.23187341E+04  d E =-.923076E-04  mag=     3.0000
       N       E                     dE             d eps       ncg     rms          rms(c)
DAV:   1    -0.229844760338E+04    0.11858E-04   -0.29279E-03  4872   0.568E-02    0.177E-02
RMM:   2    -0.229844763058E+04   -0.27208E-04   -0.29909E-04  4021   0.118E-02    0.804E-03
RMM:   3    -0.229844763246E+04   -0.18800E-05   -0.30970E-05  2803   0.581E-03
  72 F= -.23187341E+04 E0= -.23187341E+04  d E =-.912638E-04  mag=     3.0000
       N       E                     dE             d eps       ncg     rms          rms(c)
DAV:   1    -0.229844752298E+04    0.10760E-03   -0.25099E-02  4400   0.165E-01    0.490E-02
RMM:   2    -0.229844774713E+04   -0.22415E-03   -0.24126E-03  5600   0.308E-02    0.315E-02
RMM:   3    -0.229844777095E+04   -0.23821E-04   -0.21651E-04  2965   0.111E-02    0.515E-02
RMM:   4    -0.229844775231E+04    0.18638E-04   -0.33739E-05  2837   0.397E-03    0.146E-02
RMM:   5    -0.229844774957E+04    0.27386E-05   -0.88363E-06  2825   0.266E-03
  73 F= -.23187341E+04 E0= -.23187341E+04  d E =-.842372E-04  mag=     3.0000
       N       E                     dE             d eps       ncg     rms          rms(c)
DAV:   1    -0.229844773358E+04    0.18730E-04   -0.30576E-03  4856   0.575E-02    0.175E-02
RMM:   2    -0.229844775985E+04   -0.26274E-04   -0.29062E-04  3951   0.116E-02    0.817E-03
RMM:   3    -0.229844776268E+04   -0.28237E-05   -0.31832E-05  2801   0.586E-03
  74 F= -.23187341E+04 E0= -.23187341E+04  d E =-.856804E-04  mag=     3.0000
       N       E                     dE             d eps       ncg     rms          rms(c)
DAV:   1    -0.229844763036E+04    0.12949E-03   -0.27157E-02  4400   0.170E-01    0.522E-02
RMM:   2    -0.229844786530E+04   -0.23494E-03   -0.25794E-03  5596   0.319E-02    0.243E-02
RMM:   3    -0.229844787645E+04   -0.11146E-04   -0.21962E-04  3019   0.116E-02    0.224E-02
RMM:   4    -0.229844787860E+04   -0.21525E-05   -0.33206E-05  2843   0.361E-03
  75 F= -.23187342E+04 E0= -.23187342E+04  d E =-.928935E-04  mag=     3.0000
       N       E                     dE             d eps       ncg     rms          rms(c)
DAV:   1    -0.229844786997E+04    0.64763E-05   -0.88935E-04  5248   0.309E-02    0.131E-02
RMM:   2    -0.229844788285E+04   -0.12876E-04   -0.89497E-05  3043   0.640E-03    0.275E-02
RMM:   3    -0.229844787775E+04    0.50970E-05   -0.13110E-05  2536   0.381E-03
  76 F= -.23187342E+04 E0= -.23187342E+04  d E =-.877390E-04  mag=     3.0000
       N       E                     dE             d eps       ncg     rms          rms(c)
DAV:   1    -0.229844778864E+04    0.94206E-04   -0.21371E-02  4400   0.152E-01    0.487E-02
RMM:   2    -0.229844797246E+04   -0.18382E-03   -0.20233E-03  5505   0.286E-02    0.212E-02
RMM:   3    -0.229844797872E+04   -0.62560E-05   -0.16721E-04  2944   0.115E-02    0.135E-02
RMM:   4    -0.229844797777E+04    0.95073E-06   -0.24214E-05  2848   0.346E-03
  77 F= -.23187343E+04 E0= -.23187343E+04  d E =-.880784E-04  mag=     3.0000
       N       E                     dE             d eps       ncg     rms          rms(c)
DAV:   1    -0.229844797317E+04    0.55493E-05   -0.78076E-04  5088   0.292E-02    0.161E-02
RMM:   2    -0.229844799971E+04   -0.26539E-04   -0.97720E-05  3089   0.654E-03    0.503E-02
RMM:   3    -0.229844797927E+04    0.20437E-04   -0.19423E-05  2563   0.414E-03    0.560E-03
RMM:   4    -0.229844797923E+04    0.43161E-07   -0.27428E-06  2362   0.147E-03
  78 F= -.23187343E+04 E0= -.23187343E+04  d E =-.871983E-04  mag=     3.0000
       N       E                     dE             d eps       ncg     rms          rms(c)
DAV:   1    -0.229844787862E+04    0.10065E-03   -0.20693E-02  4400   0.149E-01    0.485E-02
RMM:   2    -0.229844807269E+04   -0.19407E-03   -0.20932E-03  5547   0.284E-02    0.294E-02
RMM:   3    -0.229844809598E+04   -0.23290E-04   -0.18188E-04  2960   0.114E-02    0.516E-02
RMM:   4    -0.229844807703E+04    0.18951E-04   -0.29243E-05  2831   0.370E-03    0.127E-02
RMM:   5    -0.229844807513E+04    0.18984E-05   -0.78114E-06  2811   0.242E-03
  79 F= -.23187344E+04 E0= -.23187344E+04  d E =-.705013E-04  mag=     3.0000
       N       E                     dE             d eps       ncg     rms          rms(c)
DAV:   1    -0.229844807122E+04    0.58149E-05   -0.82023E-04  4984   0.299E-02    0.990E-03
RMM:   2    -0.229844807906E+04   -0.78408E-05   -0.84816E-05  3065   0.648E-03
  80 F= -.23187344E+04 E0= -.23187344E+04  d E =-.692251E-04  mag=     3.0000
       N       E                     dE             d eps       ncg     rms          rms(c)
DAV:   1    -0.229844797039E+04    0.10083E-03   -0.16260E-02  4416   0.131E-01    0.420E-02
RMM:   2    -0.229844814755E+04   -0.17716E-03   -0.18784E-03  5716   0.265E-02    0.274E-02
RMM:   3    -0.229844817527E+04   -0.27723E-04   -0.20958E-04  2916   0.103E-02    0.495E-02
RMM:   4    -0.229844815575E+04    0.19525E-04   -0.25133E-05  2831   0.378E-03    0.109E-02
RMM:   5    -0.229844815445E+04    0.12937E-05   -0.65380E-06  2820   0.220E-03
  81 F= -.23187345E+04 E0= -.23187345E+04  d E =-.736652E-04  mag=     3.0000
       N       E                     dE             d eps       ncg     rms          rms(c)
DAV:   1    -0.229844808268E+04    0.73061E-04   -0.72146E-03  4416   0.870E-02    0.282E-02
RMM:   2    -0.229844816179E+04   -0.79103E-04   -0.83038E-04  5207   0.175E-02    0.220E-02
RMM:   3    -0.229844817062E+04   -0.88360E-05   -0.76503E-05  2828   0.720E-03
  82 F= -.23187345E+04 E0= -.23187345E+04  d E =-.886961E-04  mag=     3.0000
       N       E                     dE             d eps       ncg     rms          rms(c)
DAV:   1    -0.229844802082E+04    0.14097E-03   -0.18157E-02  4400   0.138E-01    0.458E-02
RMM:   2    -0.229844824725E+04   -0.22643E-03   -0.22832E-03  5645   0.277E-02    0.459E-02
RMM:   3    -0.229844826060E+04   -0.13359E-04   -0.21804E-04  2891   0.992E-03    0.468E-02
RMM:   4    -0.229844824404E+04    0.16569E-04   -0.30782E-05  2834   0.374E-03    0.137E-02
RMM:   5    -0.229844824170E+04    0.23314E-05   -0.78239E-06  2814   0.243E-03
  83 F= -.23187345E+04 E0= -.23187345E+04  d E =-.642224E-04  mag=     3.0000
       N       E                     dE             d eps       ncg     rms          rms(c)
DAV:   1    -0.229844820667E+04    0.37368E-04   -0.33801E-03  4824   0.595E-02    0.199E-02
RMM:   2    -0.229844824628E+04   -0.39610E-04   -0.41981E-04  4236   0.126E-02    0.134E-02
RMM:   3    -0.229844825114E+04   -0.48590E-05   -0.41997E-05  2811   0.599E-03
  84 F= -.23187345E+04 E0= -.23187345E+04  d E =-.706470E-04  mag=     3.0000
       N       E                     dE             d eps       ncg     rms          rms(c)
DAV:   1    -0.229844810528E+04    0.14099E-03   -0.19486E-02  4400   0.142E-01    0.480E-02
RMM:   2    -0.229844835051E+04   -0.24522E-03   -0.24494E-03  5690   0.290E-02    0.519E-02
RMM:   3    -0.229844835918E+04   -0.86731E-05   -0.22915E-04  2892   0.104E-02    0.475E-02
RMM:   4    -0.229844834152E+04    0.17658E-04   -0.31701E-05  2836   0.382E-03    0.134E-02
RMM:   5    -0.229844833882E+04    0.27013E-05   -0.80972E-06  2816   0.253E-03
  85 F= -.23187346E+04 E0= -.23187346E+04  d E =-.677053E-04  mag=     3.0000
       N       E                     dE             d eps       ncg     rms          rms(c)
DAV:   1    -0.229844831555E+04    0.25972E-04   -0.23945E-03  4872   0.500E-02    0.169E-02
RMM:   2    -0.229844834373E+04   -0.28178E-04   -0.29986E-04  3872   0.109E-02    0.120E-02
RMM:   3    -0.229844834731E+04   -0.35781E-05   -0.30173E-05  2793   0.550E-03
  86 F= -.23187346E+04 E0= -.23187346E+04  d E =-.690472E-04  mag=     3.0000
       N       E                     dE             d eps       ncg     rms          rms(c)
DAV:   1    -0.229844820655E+04    0.13717E-03   -0.18684E-02  4400   0.137E-01    0.452E-02
RMM:   2    -0.229844843484E+04   -0.22829E-03   -0.23242E-03  5673   0.279E-02    0.445E-02
RMM:   3    -0.229844844915E+04   -0.14306E-04   -0.20822E-04  2887   0.103E-02    0.477E-02
RMM:   4    -0.229844843207E+04    0.17081E-04   -0.29577E-05  2832   0.371E-03    0.131E-02
RMM:   5    -0.229844842998E+04    0.20910E-05   -0.79829E-06  2817   0.236E-03
  87 F= -.23187347E+04 E0= -.23187347E+04  d E =-.607128E-04  mag=     3.0000
       N       E                     dE             d eps       ncg     rms          rms(c)
DAV:   1    -0.229844842033E+04    0.11738E-04   -0.12507E-03  4872   0.355E-02    0.120E-02
RMM:   2    -0.229844843458E+04   -0.14246E-04   -0.15494E-04  3319   0.786E-03    0.579E-03
RMM:   3    -0.229844843593E+04   -0.13528E-05   -0.17362E-05  2632   0.431E-03
  88 F= -.23187347E+04 E0= -.23187347E+04  d E =-.608600E-04  mag=     3.0000
       N       E                     dE             d eps       ncg     rms          rms(c)
DAV:   1    -0.229844832952E+04    0.10506E-03   -0.17770E-02  4400   0.134E-01    0.458E-02
RMM:   2    -0.229844850483E+04   -0.17531E-03   -0.18485E-03  5524   0.264E-02    0.369E-02
RMM:   3    -0.229844852529E+04   -0.20452E-04   -0.17097E-04  2927   0.106E-02    0.537E-02
RMM:   4    -0.229844850315E+04    0.22138E-04   -0.28216E-05  2831   0.370E-03    0.117E-02
RMM:   5    -0.229844850131E+04    0.18335E-05   -0.81950E-06  2823   0.242E-03
  89 F= -.23187348E+04 E0= -.23187348E+04  d E =-.771631E-04  mag=     3.0000
       N       E                     dE             d eps       ncg     rms          rms(c)
DAV:   1    -0.229844847075E+04    0.32394E-04   -0.28520E-03  4640   0.539E-02    0.182E-02
RMM:   2    -0.229844849733E+04   -0.26578E-04   -0.29461E-04  3924   0.114E-02    0.780E-03
RMM:   3    -0.229844849926E+04   -0.19285E-05   -0.28314E-05  2807   0.570E-03
  90 F= -.23187348E+04 E0= -.23187348E+04  d E =-.798989E-04  mag=     3.0000
       N       E                     dE             d eps       ncg     rms          rms(c)
DAV:   1    -0.229844834782E+04    0.14951E-03   -0.19419E-02  4400   0.137E-01    0.443E-02
RMM:   2    -0.229844854350E+04   -0.19568E-03   -0.20894E-03  5584   0.272E-02    0.312E-02
RMM:   3    -0.229844856618E+04   -0.22672E-04   -0.19143E-04  2920   0.974E-03    0.493E-02
RMM:   4    -0.229844854891E+04    0.17262E-04   -0.29449E-05  2832   0.361E-03    0.128E-02
RMM:   5    -0.229844854730E+04    0.16183E-05   -0.78186E-06  2823   0.235E-03
  91 F= -.23187348E+04 E0= -.23187348E+04  d E =-.680396E-04  mag=     3.0000
       N       E                     dE             d eps       ncg     rms          rms(c)
DAV:   1    -0.229844851420E+04    0.34718E-04   -0.27014E-03  4640   0.510E-02    0.165E-02
RMM:   2    -0.229844854081E+04   -0.26618E-04   -0.28749E-04  3830   0.107E-02    0.105E-02
RMM:   3    -0.229844854569E+04   -0.48754E-05   -0.31880E-05  2806   0.534E-03
  92 F= -.23187348E+04 E0= -.23187348E+04  d E =-.740167E-04  mag=     3.0000
       N       E                     dE             d eps       ncg     rms          rms(c)
DAV:   1    -0.229844838836E+04    0.15246E-03   -0.20356E-02  4384   0.140E-01    0.473E-02
RMM:   2    -0.229844859136E+04   -0.20300E-03   -0.21978E-03  5603   0.280E-02    0.267E-02
RMM:   3    -0.229844861529E+04   -0.23924E-04   -0.20181E-04  2905   0.104E-02    0.449E-02
RMM:   4    -0.229844860026E+04    0.15021E-04   -0.31659E-05  2831   0.360E-03    0.149E-02
RMM:   5    -0.229844859771E+04    0.25538E-05   -0.84567E-06  2823   0.241E-03
  93 F= -.23187349E+04 E0= -.23187349E+04  d E =-.676157E-04  mag=     3.0000
       N       E                     dE             d eps       ncg     rms          rms(c)
DAV:   1    -0.229844858896E+04    0.11304E-04   -0.56198E-04  4880   0.234E-02    0.823E-03
RMM:   2    -0.229844859461E+04   -0.56516E-05   -0.62913E-05  2931   0.542E-03
  94 F= -.23187349E+04 E0= -.23187349E+04  d E =-.671987E-04  mag=     3.0000
       N       E                     dE             d eps       ncg     rms          rms(c)
DAV:   1    -0.229844845022E+04    0.13874E-03   -0.18079E-02  4432   0.131E-01    0.449E-02
RMM:   2    -0.229844866977E+04   -0.21955E-03   -0.22969E-03  5677   0.276E-02    0.380E-02
RMM:   3    -0.229844869324E+04   -0.23470E-04   -0.22406E-04  2943   0.105E-02    0.506E-02
RMM:   4    -0.229844867505E+04    0.18186E-04   -0.31900E-05  2835   0.388E-03    0.126E-02
RMM:   5    -0.229844867342E+04    0.16355E-05   -0.72915E-06  2828   0.238E-03
  95 F= -.23187350E+04 E0= -.23187350E+04  d E =-.590738E-04  mag=     3.0000
       N       E                     dE             d eps       ncg     rms          rms(c)
DAV:   1    -0.229844866897E+04    0.60836E-05   -0.60495E-04  4880   0.240E-02    0.874E-03
RMM:   2    -0.229844867663E+04   -0.76584E-05   -0.78613E-05  2977   0.557E-03
  96 F= -.23187350E+04 E0= -.23187350E+04  d E =-.585526E-04  mag=     3.0000
       N       E                     dE             d eps       ncg     rms          rms(c)
DAV:   1    -0.229844850786E+04    0.16111E-03   -0.19063E-02  4432   0.136E-01    0.478E-02
RMM:   2    -0.229844876418E+04   -0.25632E-03   -0.27282E-03  5761   0.291E-02    0.272E-02
RMM:   3    -0.229844878970E+04   -0.25527E-04   -0.28303E-04  2927   0.114E-02    0.390E-02
RMM:   4    -0.229844878158E+04    0.81228E-05   -0.34089E-05  2836   0.376E-03
  97 F= -.23187350E+04 E0= -.23187350E+04  d E =-.741254E-04  mag=     3.0000
       N       E                     dE             d eps       ncg     rms          rms(c)
DAV:   1    -0.229844877534E+04    0.14368E-04   -0.89143E-04  5056   0.293E-02    0.141E-02
RMM:   2    -0.229844879644E+04   -0.21100E-04   -0.13591E-04  3148   0.675E-03    0.359E-02
RMM:   3    -0.229844878665E+04    0.97861E-05   -0.17270E-05  2522   0.386E-03
  98 F= -.23187350E+04 E0= -.23187350E+04  d E =-.723411E-04  mag=     3.0000
       N       E                     dE             d eps       ncg     rms          rms(c)
DAV:   1    -0.229844863555E+04    0.16088E-03   -0.16660E-02  4400   0.127E-01    0.486E-02
RMM:   2    -0.229844892098E+04   -0.28543E-03   -0.25970E-03  5716   0.274E-02    0.790E-02
RMM:   3    -0.229844889210E+04    0.28882E-04   -0.23710E-04  2926   0.107E-02    0.349E-02
RMM:   4    -0.229844888363E+04    0.84644E-05   -0.31451E-05  2837   0.345E-03
  99 F= -.23187351E+04 E0= -.23187351E+04  d E =-.663882E-04  mag=     3.0000
       N       E                     dE             d eps       ncg     rms          rms(c)
DAV:   1    -0.229844888054E+04    0.11558E-04   -0.32463E-04  5104   0.178E-02    0.799E-03
RMM:   2    -0.229844888536E+04   -0.48167E-05   -0.52055E-05  2824   0.431E-03
 100 F= -.23187351E+04 E0= -.23187351E+04  d E =-.635753E-04  mag=     3.0000
       N       E                     dE             d eps       ncg     rms          rms(c)
DAV:   1    -0.229844876904E+04    0.11150E-03   -0.11901E-02  4400   0.106E-01    0.418E-02
RMM:   2    -0.229844900067E+04   -0.23163E-03   -0.19643E-03  5567   0.241E-02    0.834E-02
RMM:   3    -0.229844895805E+04    0.42620E-04   -0.18976E-04  2879   0.951E-03    0.244E-02
RMM:   4    -0.229844895466E+04    0.33880E-05   -0.24157E-05  2839   0.315E-03
 101 F= -.23187351E+04 E0= -.23187351E+04  d E =-.477212E-04  mag=     3.0000
       N       E                     dE             d eps       ncg     rms          rms(c)
DAV:   1    -0.229844894705E+04    0.10999E-04   -0.81384E-04  4904   0.276E-02    0.106E-02
RMM:   2    -0.229844895873E+04   -0.11677E-04   -0.12736E-04  3099   0.644E-03    0.642E-03
RMM:   3    -0.229844895960E+04   -0.87667E-06   -0.13950E-05  2525   0.365E-03
 102 F= -.23187351E+04 E0= -.23187351E+04  d E =-.468298E-04  mag=     3.0000
       N       E                     dE             d eps       ncg     rms          rms(c)
DAV:   1    -0.229844892276E+04    0.35962E-04   -0.84326E-03  4400   0.919E-02    0.366E-02
RMM:   2    -0.229844904287E+04   -0.12011E-03   -0.11145E-03  5352   0.196E-02    0.522E-02
RMM:   3    -0.229844903397E+04    0.89036E-05   -0.10390E-04  2859   0.814E-03    0.324E-02
RMM:   4    -0.229844902574E+04    0.82298E-05   -0.14712E-05  2821   0.281E-03
 103 F= -.23187352E+04 E0= -.23187352E+04  d E =-.547652E-04  mag=     3.0000
       N       E                     dE             d eps       ncg     rms          rms(c)
DAV:   1    -0.229844901754E+04    0.16428E-04   -0.10428E-03  4960   0.322E-02    0.129E-02
RMM:   2    -0.229844903089E+04   -0.13352E-04   -0.13667E-04  3180   0.713E-03    0.140E-02
RMM:   3    -0.229844903155E+04   -0.65195E-06   -0.14713E-05  2620   0.388E-03
 104 F= -.23187352E+04 E0= -.23187352E+04  d E =-.564675E-04  mag=     3.0000
       N       E                     dE             d eps       ncg     rms          rms(c)
DAV:   1    -0.229844899538E+04    0.35514E-04   -0.71617E-03  4400   0.823E-02    0.303E-02
RMM:   2    -0.229844907979E+04   -0.84410E-04   -0.89941E-04  5184   0.174E-02    0.203E-02
RMM:   3    -0.229844908897E+04   -0.91750E-05   -0.78072E-05  2828   0.737E-03
 105 F= -.23187352E+04 E0= -.23187352E+04  d E =-.451131E-04  mag=     3.0000
       N       E                     dE             d eps       ncg     rms          rms(c)
DAV:   1    -0.229844908061E+04   -0.81607E-06   -0.35191E-04  5096   0.186E-02    0.117E-02
RMM:   2    -0.229844908621E+04   -0.56010E-05   -0.50878E-05  2773   0.425E-03
 106 F= -.23187352E+04 E0= -.23187352E+04  d E =-.396661E-04  mag=     3.0000
       N       E                     dE             d eps       ncg     rms          rms(c)
DAV:   1    -0.229844904945E+04    0.31152E-04   -0.75468E-03  4400   0.850E-02    0.308E-02
RMM:   2    -0.229844913053E+04   -0.81074E-04   -0.87436E-04  5121   0.184E-02    0.173E-02
RMM:   3    -0.229844913955E+04   -0.90248E-05   -0.82809E-05  2833   0.795E-03
 107 F= -.23187353E+04 E0= -.23187353E+04  d E =-.433119E-04  mag=     3.0000
       N       E                     dE             d eps       ncg     rms          rms(c)
DAV:   1    -0.229844913404E+04   -0.35084E-05   -0.51638E-05  4464   0.744E-03    0.107E-02
RMM:   2    -0.229844913778E+04   -0.37438E-05   -0.11817E-05  2424   0.323E-03
 108 F= -.23187353E+04 E0= -.23187353E+04  d E =-.408852E-04  mag=     3.0000
       N       E                     dE             d eps       ncg     rms          rms(c)
DAV:   1    -0.229844908784E+04    0.46194E-04   -0.66613E-03  4400   0.795E-02    0.301E-02
RMM:   2    -0.229844915071E+04   -0.62866E-04   -0.69559E-04  5005   0.163E-02    0.158E-02
RMM:   3    -0.229844915637E+04   -0.56605E-05   -0.61678E-05  2831   0.741E-03
 109 F= -.23187353E+04 E0= -.23187353E+04  d E =-.308436E-04  mag=     3.0000
       N       E                     dE             d eps       ncg     rms          rms(c)
DAV:   1    -0.229844915230E+04   -0.15872E-05   -0.20431E-05  4016   0.468E-03    0.104E-02
RMM:   2    -0.229844915873E+04   -0.64350E-05   -0.10603E-05  2448   0.250E-03
 110 F= -.23187353E+04 E0= -.23187353E+04  d E =-.335297E-04  mag=     3.0000
       N       E                     dE             d eps       ncg     rms          rms(c)
DAV:   1    -0.229844910775E+04    0.44547E-04   -0.45652E-03  4400   0.628E-02    0.230E-02
RMM:   2    -0.229844916543E+04   -0.57678E-04   -0.60475E-04  4419   0.138E-02    0.194E-02
RMM:   3    -0.229844917101E+04   -0.55855E-05   -0.58464E-05  2801   0.629E-03
 111 F= -.23187353E+04 E0= -.23187353E+04  d E =-.271021E-04  mag=     3.0000
       N       E                     dE             d eps       ncg     rms          rms(c)
DAV:   1    -0.229844915291E+04    0.12511E-04   -0.80069E-04  4344   0.264E-02    0.125E-02
RMM:   2    -0.229844916309E+04   -0.10179E-04   -0.11243E-04  3089   0.599E-03    0.870E-03
RMM:   3    -0.229844916489E+04   -0.17959E-05   -0.14100E-05  2606   0.337E-03
 112 F= -.23187353E+04 E0= -.23187353E+04  d E =-.272004E-04  mag=     3.0000
       N       E                     dE             d eps       ncg     rms          rms(c)
DAV:   1    -0.229844913794E+04    0.25157E-04   -0.49438E-03  4400   0.667E-02    0.261E-02
RMM:   2    -0.229844920576E+04   -0.67821E-04   -0.67441E-04  4658   0.149E-02    0.311E-02
RMM:   3    -0.229844920707E+04   -0.13158E-05   -0.58674E-05  2832   0.664E-03
 113 F= -.23187354E+04 E0= -.23187354E+04  d E =-.408671E-04  mag=     3.0000
       N       E                     dE             d eps       ncg     rms          rms(c)
DAV:   1    -0.229844919731E+04    0.84476E-05   -0.45329E-04  4792   0.203E-02    0.112E-02
RMM:   2    -0.229844920262E+04   -0.53061E-05   -0.65513E-05  2887   0.472E-03
 114 F= -.23187354E+04 E0= -.23187354E+04  d E =-.360110E-04  mag=     3.0000
       N       E                     dE             d eps       ncg     rms          rms(c)
DAV:   1    -0.229844917131E+04    0.25996E-04   -0.53992E-03  4400   0.698E-02    0.265E-02
RMM:   2    -0.229844924441E+04   -0.73091E-04   -0.78303E-04  4719   0.162E-02    0.132E-02
RMM:   3    -0.229844924814E+04   -0.37329E-05   -0.66993E-05  2820   0.699E-03
 115 F= -.23187354E+04 E0= -.23187354E+04  d E =-.309763E-04  mag=     3.0000
       N       E                     dE             d eps       ncg     rms          rms(c)
DAV:   1    -0.229844924892E+04   -0.45153E-05   -0.67261E-05  4904   0.763E-03    0.585E-03
RMM:   2    -0.229844925066E+04   -0.17394E-05   -0.13187E-05  2399   0.236E-03
 116 F= -.23187354E+04 E0= -.23187354E+04  d E =-.318841E-04  mag=     3.0000
       N       E                     dE             d eps       ncg     rms          rms(c)
DAV:   1    -0.229844920992E+04    0.39000E-04   -0.56255E-03  4400   0.706E-02    0.280E-02
RMM:   2    -0.229844930167E+04   -0.91752E-04   -0.87102E-04  4867   0.163E-02    0.411E-02
RMM:   3    -0.229844929690E+04    0.47760E-05   -0.78380E-05  2827   0.718E-03
 117 F= -.23187354E+04 E0= -.23187354E+04  d E =-.416188E-04  mag=     3.0000
       N       E                     dE             d eps       ncg     rms          rms(c)
DAV:   1    -0.229844928911E+04    0.12566E-04   -0.34162E-04  4912   0.175E-02    0.107E-02
RMM:   2    -0.229844929376E+04   -0.46529E-05   -0.58124E-05  2804   0.427E-03
 118 F= -.23187354E+04 E0= -.23187354E+04  d E =-.373435E-04  mag=     3.0000
       N       E                     dE             d eps       ncg     rms          rms(c)
DAV:   1    -0.229844925592E+04    0.33187E-04   -0.49754E-03  4400   0.670E-02    0.284E-02
RMM:   2    -0.229844935270E+04   -0.96783E-04   -0.79199E-04  4635   0.160E-02    0.578E-02
RMM:   3    -0.229844933119E+04    0.21516E-04   -0.80370E-05  2829   0.710E-03    0.172E-02
RMM:   4    -0.229844932955E+04    0.16362E-05   -0.11365E-05  2772   0.246E-03
 119 F= -.23187355E+04 E0= -.23187355E+04  d E =-.323902E-04  mag=     3.0000
       N       E                     dE             d eps       ncg     rms          rms(c)
DAV:   1    -0.229844932109E+04    0.10099E-04   -0.69398E-04  4616   0.249E-02    0.968E-03
RMM:   2    -0.229844933075E+04   -0.96678E-05   -0.10373E-04  3075   0.597E-03    0.658E-03
RMM:   3    -0.229844933174E+04   -0.98589E-06   -0.91193E-06  2501   0.320E-03
 120 F= -.23187355E+04 E0= -.23187355E+04  d E =-.332756E-04  mag=     3.0000
       N       E                     dE             d eps       ncg     rms          rms(c)
DAV:   1    -0.229844931778E+04    0.12974E-04   -0.30569E-03  4384   0.510E-02    0.199E-02
RMM:   2    -0.229844936715E+04   -0.49366E-04   -0.49563E-04  4005   0.119E-02    0.219E-02
RMM:   3    -0.229844936948E+04   -0.23322E-05   -0.45127E-05  2727   0.551E-03
 121 F= -.23187355E+04 E0= -.23187355E+04  d E =-.308767E-04  mag=     3.0000
       N       E                     dE             d eps       ncg     rms          rms(c)
DAV:   1    -0.229844933509E+04    0.32055E-04   -0.29389E-03  4384   0.500E-02    0.206E-02
RMM:   2    -0.229844938404E+04   -0.48951E-04   -0.48750E-04  3951   0.118E-02    0.242E-02
RMM:   3    -0.229844938530E+04   -0.12541E-05   -0.45967E-05  2811   0.526E-03
 122 F= -.23187355E+04 E0= -.23187355E+04  d E =-.399489E-04  mag=     3.0000
       N       E                     dE             d eps       ncg     rms          rms(c)
DAV:   1    -0.229844938650E+04   -0.24613E-05   -0.24264E-03  4344   0.463E-02    0.193E-02
RMM:   2    -0.229844942694E+04   -0.40434E-04   -0.39337E-04  3958   0.113E-02    0.241E-02
RMM:   3    -0.229844942698E+04   -0.37224E-07   -0.37776E-05  2777   0.526E-03
 123 F= -.23187355E+04 E0= -.23187355E+04  d E =-.306913E-04  mag=     3.0000
       N       E                     dE             d eps       ncg     rms          rms(c)
DAV:   1    -0.229844941982E+04    0.71130E-05   -0.13778E-03  4392   0.348E-02    0.158E-02
RMM:   2    -0.229844944220E+04   -0.22380E-04   -0.22328E-04  3421   0.857E-03    0.185E-02
RMM:   3    -0.229844944251E+04   -0.30122E-06   -0.22496E-05  2764   0.425E-03
 124 F= -.23187356E+04 E0= -.23187356E+04  d E =-.379188E-04  mag=     3.0000
       N       E                     dE             d eps       ncg     rms          rms(c)
DAV:   1    -0.229844943580E+04    0.64040E-05   -0.22350E-03  4368   0.454E-02    0.188E-02
RMM:   2    -0.229844946823E+04   -0.32428E-04   -0.32530E-04  3881   0.110E-02    0.204E-02
RMM:   3    -0.229844946970E+04   -0.14754E-05   -0.31733E-05  2751   0.543E-03
 125 F= -.23187356E+04 E0= -.23187356E+04  d E =-.268322E-04  mag=     3.0000
       N       E                     dE             d eps       ncg     rms          rms(c)
DAV:   1    -0.229844946395E+04    0.42775E-05   -0.33011E-04  4736   0.176E-02    0.947E-03
RMM:   2    -0.229844946822E+04   -0.42652E-05   -0.50483E-05  2786   0.441E-03
 126 F= -.23187356E+04 E0= -.23187356E+04  d E =-.252020E-04  mag=     3.0000
       N       E                     dE             d eps       ncg     rms          rms(c)
DAV:   1    -0.229844944644E+04    0.17512E-04   -0.22474E-03  4368   0.444E-02    0.202E-02
RMM:   2    -0.229844948809E+04   -0.41647E-04   -0.33298E-04  3717   0.109E-02    0.407E-02
RMM:   3    -0.229844947756E+04    0.10526E-04   -0.36879E-05  2751   0.558E-03    0.131E-02
RMM:   4    -0.229844947643E+04    0.11257E-05   -0.55631E-06  2545   0.206E-03
 127 F= -.23187356E+04 E0= -.23187356E+04  d E =-.201999E-04  mag=     3.0000
       N       E                     dE             d eps       ncg     rms          rms(c)
DAV:   1    -0.229844947096E+04    0.65953E-05   -0.19615E-04  4776   0.131E-02    0.541E-03
RMM:   2    -0.229844947343E+04   -0.24648E-05   -0.27364E-05  2606   0.338E-03
 128 F= -.23187356E+04 E0= -.23187356E+04  d E =-.208631E-04  mag=     3.0000
       N       E                     dE             d eps       ncg     rms          rms(c)
DAV:   1    -0.229844946275E+04    0.82160E-05   -0.19985E-03  4304   0.412E-02    0.164E-02
RMM:   2    -0.229844948920E+04   -0.26455E-04   -0.25702E-04  3559   0.970E-03    0.205E-02
RMM:   3    -0.229844948991E+04   -0.70658E-06   -0.29557E-05  2561   0.513E-03
 129 F= -.23187356E+04 E0= -.23187356E+04  d E =-.282173E-04  mag=     3.0000
       N       E                     dE             d eps       ncg     rms          rms(c)
DAV:   1    -0.229844946473E+04    0.24470E-04   -0.16084E-03  4288   0.370E-02    0.157E-02
RMM:   2    -0.229844948392E+04   -0.19185E-04   -0.21220E-04  3397   0.894E-03    0.895E-03
RMM:   3    -0.229844948530E+04   -0.13810E-05   -0.20363E-05  2737   0.441E-03
 130 F= -.23187356E+04 E0= -.23187356E+04  d E =-.342000E-04  mag=     3.0000
       N       E                     dE             d eps       ncg     rms          rms(c)
DAV:   1    -0.229844948445E+04   -0.53266E-06   -0.18310E-03  4344   0.402E-02    0.167E-02
RMM:   2    -0.229844950872E+04   -0.24268E-04   -0.24320E-04  3625   0.948E-03    0.190E-02
RMM:   3    -0.229844951041E+04   -0.16877E-05   -0.28854E-05  2738   0.492E-03
 131 F= -.23187357E+04 E0= -.23187357E+04  d E =-.251516E-04  mag=     3.0000
       N       E                     dE             d eps       ncg     rms          rms(c)
DAV:   1    -0.229844950567E+04    0.30478E-05   -0.29936E-04  4712   0.164E-02    0.880E-03
RMM:   2    -0.229844950916E+04   -0.34889E-05   -0.42225E-05  2775   0.420E-03
 132 F= -.23187357E+04 E0= -.23187357E+04  d E =-.239213E-04  mag=     3.0000
       N       E                     dE             d eps       ncg     rms          rms(c)
DAV:   1    -0.229844950438E+04    0.12890E-05   -0.18399E-03  4352   0.408E-02    0.192E-02
RMM:   2    -0.229844953986E+04   -0.35482E-04   -0.26283E-04  3619   0.103E-02    0.415E-02
RMM:   3    -0.229844952802E+04    0.11849E-04   -0.30514E-05  2699   0.532E-03    0.113E-02
RMM:   4    -0.229844952721E+04    0.80132E-06   -0.45710E-06  2478   0.199E-03
 133 F= -.23187357E+04 E0= -.23187357E+04  d E =-.198318E-04  mag=     3.0000
       N       E                     dE             d eps       ncg     rms          rms(c)
DAV:   1    -0.229844952379E+04    0.42297E-05   -0.33317E-04  4632   0.173E-02    0.691E-03
RMM:   2    -0.229844952772E+04   -0.39370E-05   -0.44014E-05  2778   0.445E-03
 134 F= -.23187357E+04 E0= -.23187357E+04  d E =-.211153E-04  mag=     3.0000
       N       E                     dE             d eps       ncg     rms          rms(c)
DAV:   1    -0.229844951827E+04    0.55135E-05   -0.16258E-03  4304   0.372E-02    0.149E-02
RMM:   2    -0.229844954035E+04   -0.22081E-04   -0.23329E-04  3429   0.914E-03    0.110E-02
RMM:   3    -0.229844954375E+04   -0.33993E-05   -0.25331E-05  2587   0.476E-03
 135 F= -.23187357E+04 E0= -.23187357E+04  d E =-.183220E-04  mag=     3.0000
       N       E                     dE             d eps       ncg     rms          rms(c)
DAV:   1    -0.229844953859E+04    0.17605E-05   -0.22771E-04  4728   0.141E-02    0.754E-03
RMM:   2    -0.229844954205E+04   -0.34590E-05   -0.36539E-05  2660   0.381E-03
 136 F= -.23187357E+04 E0= -.23187357E+04  d E =-.174838E-04  mag=     3.0000
       N       E                     dE             d eps       ncg     rms          rms(c)
DAV:   1    -0.229844953391E+04    0.46795E-05   -0.16774E-03  4304   0.390E-02    0.184E-02
RMM:   2    -0.229844957099E+04   -0.37073E-04   -0.26218E-04  3568   0.100E-02    0.437E-02
RMM:   3    -0.229844955722E+04    0.13764E-04   -0.30348E-05  2632   0.518E-03    0.914E-03
RMM:   4    -0.229844955679E+04    0.42925E-06   -0.47790E-06  2432   0.191E-03
 137 F= -.23187357E+04 E0= -.23187357E+04  d E =-.199167E-04  mag=     3.0000
       N       E                     dE             d eps       ncg     rms          rms(c)
DAV:   1    -0.229844955339E+04    0.38281E-05   -0.22525E-04  4712   0.142E-02    0.593E-03
RMM:   2    -0.229844955647E+04   -0.30707E-05   -0.32408E-05  2637   0.374E-03
 138 F= -.23187357E+04 E0= -.23187357E+04  d E =-.215420E-04  mag=     3.0000
       N       E                     dE             d eps       ncg     rms          rms(c)
DAV:   1    -0.229844955067E+04    0.27221E-05   -0.13502E-03  4288   0.342E-02    0.139E-02
RMM:   2    -0.229844957073E+04   -0.20053E-04   -0.21199E-04  3348   0.864E-03    0.978E-03
RMM:   3    -0.229844957356E+04   -0.28328E-05   -0.21949E-05  2468   0.448E-03
 139 F= -.23187357E+04 E0= -.23187357E+04  d E =-.195115E-04  mag=     3.0000
       N       E                     dE             d eps       ncg     rms          rms(c)
DAV:   1    -0.229844956835E+04    0.23763E-05   -0.22992E-04  4768   0.143E-02    0.768E-03
RMM:   2    -0.229844957244E+04   -0.40932E-05   -0.38876E-05  2651   0.390E-03
 140 F= -.23187357E+04 E0= -.23187357E+04  d E =-.193899E-04  mag=     3.0000
       N       E                     dE             d eps       ncg     rms          rms(c)
DAV:   1    -0.229844956702E+04    0.13331E-05   -0.10793E-03  4272   0.305E-02    0.146E-02
RMM:   2    -0.229844959216E+04   -0.25147E-04   -0.18212E-04  3211   0.795E-03    0.348E-02
RMM:   3    -0.229844958346E+04    0.86980E-05   -0.20834E-05  2404   0.422E-03
 141 F= -.23187358E+04 E0= -.23187358E+04  d E =-.141635E-04  mag=     3.0000
       N       E                     dE             d eps       ncg     rms          rms(c)
DAV:   1    -0.229844957376E+04    0.18405E-04   -0.74730E-04  4208   0.252E-02    0.117E-02
RMM:   2    -0.229844958698E+04   -0.13218E-04   -0.12253E-04  3142   0.663E-03    0.183E-02
RMM:   3    -0.229844958554E+04    0.14326E-05   -0.12936E-05  2515   0.356E-03
 142 F= -.23187358E+04 E0= -.23187358E+04  d E =-.188842E-04  mag=     3.0000
       N       E                     dE             d eps       ncg     rms          rms(c)
DAV:   1    -0.229844957870E+04    0.82793E-05   -0.12348E-03  4288   0.318E-02    0.139E-02
RMM:   2    -0.229844960090E+04   -0.22207E-04   -0.21064E-04  3375   0.826E-03    0.202E-02
RMM:   3    -0.229844959983E+04    0.10786E-05   -0.20605E-05  2555   0.420E-03
 143 F= -.23187358E+04 E0= -.23187358E+04  d E =-.172318E-04  mag=     3.0000
       N       E                     dE             d eps       ncg     rms          rms(c)
DAV:   1    -0.229844959489E+04    0.60094E-05   -0.21358E-04  4768   0.133E-02    0.747E-03
RMM:   2    -0.229844959848E+04   -0.35832E-05   -0.38334E-05  2641   0.365E-03
 144 F= -.23187358E+04 E0= -.23187358E+04  d E =-.171192E-04  mag=     3.0000
       N       E                     dE             d eps       ncg     rms          rms(c)
DAV:   1    -0.229844958910E+04    0.57922E-05   -0.12219E-03  4256   0.317E-02    0.163E-02
RMM:   2    -0.229844962131E+04   -0.32203E-04   -0.21575E-04  3273   0.809E-03    0.421E-02
RMM:   3    -0.229844960797E+04    0.13335E-04   -0.24397E-05  2429   0.436E-03    0.740E-03
RMM:   4    -0.229844960782E+04    0.15020E-06   -0.41210E-06  2238   0.161E-03
 145 F= -.23187358E+04 E0= -.23187358E+04  d E =-.139112E-04  mag=     3.0000
       N       E                     dE             d eps       ncg     rms          rms(c)
DAV:   1    -0.229844959212E+04    0.15848E-04   -0.98343E-04  4192   0.283E-02    0.114E-02
RMM:   2    -0.229844960669E+04   -0.14571E-04   -0.15664E-04  3202   0.719E-03    0.689E-03
RMM:   3    -0.229844960793E+04   -0.12388E-05   -0.13427E-05  2549   0.368E-03
 146 F= -.23187358E+04 E0= -.23187358E+04  d E =-.181696E-04  mag=     3.0000
       N       E                     dE             d eps       ncg     rms          rms(c)
DAV:   1    -0.229844960469E+04    0.20045E-05   -0.14413E-03  4272   0.338E-02    0.139E-02
RMM:   2    -0.229844962714E+04   -0.22454E-04   -0.23828E-04  3392   0.852E-03    0.879E-03
RMM:   3    -0.229844962894E+04   -0.17946E-05   -0.20186E-05  2541   0.422E-03
 147 F= -.23187358E+04 E0= -.23187358E+04  d E =-.216009E-04  mag=     3.0000
       N       E                     dE             d eps       ncg     rms          rms(c)
DAV:   1    -0.229844960339E+04    0.23756E-04   -0.18360E-03  4296   0.381E-02    0.164E-02
RMM:   2    -0.229844963162E+04   -0.28236E-04   -0.30298E-04  3531   0.955E-03    0.101E-02
RMM:   3    -0.229844963350E+04   -0.18755E-05   -0.26168E-05  2764   0.468E-03
 148 F= -.23187358E+04 E0= -.23187358E+04  d E =-.268495E-04  mag=     3.0000
       N       E                     dE             d eps       ncg     rms          rms(c)
DAV:   1    -0.229844962028E+04    0.11343E-04   -0.12624E-03  4232   0.305E-02    0.135E-02
RMM:   2    -0.229844964119E+04   -0.20908E-04   -0.21895E-04  3320   0.769E-03    0.999E-03
RMM:   3    -0.229844964401E+04   -0.28177E-05   -0.23915E-05  2583   0.399E-03
 149 F= -.23187358E+04 E0= -.23187358E+04  d E =-.145047E-04  mag=     3.0000
       N       E                     dE             d eps       ncg     rms          rms(c)
DAV:   1    -0.229844962005E+04    0.21135E-04   -0.14566E-03  4256   0.327E-02    0.147E-02
RMM:   2    -0.229844964618E+04   -0.26130E-04   -0.25448E-04  3346   0.833E-03    0.199E-02
RMM:   3    -0.229844964602E+04    0.16394E-06   -0.23535E-05  2647   0.405E-03
 150 F= -.23187358E+04 E0= -.23187358E+04  d E =-.208014E-04  mag=     3.0000
       N       E                     dE             d eps       ncg     rms          rms(c)
DAV:   1    -0.229844964005E+04    0.61376E-05   -0.15872E-03  4272   0.359E-02    0.154E-02
RMM:   2    -0.229844966559E+04   -0.25542E-04   -0.25725E-04  3512   0.908E-03    0.167E-02
RMM:   3    -0.229844966680E+04   -0.12094E-05   -0.24358E-05  2551   0.453E-03
 151 F= -.23187359E+04 E0= -.23187359E+04  d E =-.250692E-04  mag=     3.0000
       N       E                     dE             d eps       ncg     rms          rms(c)
DAV:   1    -0.229844965380E+04    0.11787E-04   -0.89971E-04  4240   0.270E-02    0.128E-02
RMM:   2    -0.229844966783E+04   -0.14028E-04   -0.14715E-04  3220   0.698E-03    0.120E-02
RMM:   3    -0.229844966902E+04   -0.11880E-05   -0.14640E-05  2605   0.375E-03
 152 F= -.23187359E+04 E0= -.23187359E+04  d E =-.305252E-04  mag=     3.0000
       N       E                     dE             d eps       ncg     rms          rms(c)
DAV:   1    -0.229844965718E+04    0.10649E-04   -0.93768E-04  4216   0.281E-02    0.123E-02
RMM:   2    -0.229844967123E+04   -0.14046E-04   -0.14693E-04  3207   0.714E-03    0.106E-02
RMM:   3    -0.229844967264E+04   -0.14094E-05   -0.14226E-05  2498   0.380E-03
 153 F= -.23187359E+04 E0= -.23187359E+04  d E =-.122778E-04  mag=     3.0000
       N       E                     dE             d eps       ncg     rms          rms(c)
DAV:   1    -0.229844966765E+04    0.35771E-05   -0.10443E-04  4976   0.953E-03    0.595E-03
RMM:   2    -0.229844966913E+04   -0.14817E-05   -0.17131E-05  2416   0.257E-03
 154 F= -.23187359E+04 E0= -.23187359E+04  d E =-.116441E-04  mag=     3.0000
       N       E                     dE             d eps       ncg     rms          rms(c)
DAV:   1    -0.229844965876E+04    0.88858E-05   -0.94288E-04  4240   0.282E-02    0.122E-02
RMM:   2    -0.229844967255E+04   -0.13782E-04   -0.13328E-04  3033   0.703E-03    0.155E-02
RMM:   3    -0.229844967295E+04   -0.40792E-06   -0.16918E-05  2354   0.405E-03
 155 F= -.23187359E+04 E0= -.23187359E+04  d E =-.129393E-04  mag=     3.0000
       N       E                     dE             d eps       ncg     rms          rms(c)
DAV:   1    -0.229844966964E+04    0.29099E-05   -0.51533E-05  4192   0.686E-03    0.476E-03
RMM:   2    -0.229844967034E+04   -0.69957E-06   -0.92678E-06  2286   0.254E-03
 156 F= -.23187359E+04 E0= -.23187359E+04  d E =-.124434E-04  mag=     3.0000
       N       E                     dE             d eps       ncg     rms          rms(c)
DAV:   1    -0.229844966404E+04    0.55998E-05   -0.91236E-04  4192   0.273E-02    0.117E-02
RMM:   2    -0.229844967709E+04   -0.13052E-04   -0.13358E-04  3079   0.690E-03    0.130E-02
RMM:   3    -0.229844967782E+04   -0.73179E-06   -0.13038E-05  2305   0.376E-03
 157 F= -.23187359E+04 E0= -.23187359E+04  d E =-.115973E-04  mag=     3.0000
       N       E                     dE             d eps       ncg     rms          rms(c)
DAV:   1    -0.229844967544E+04    0.16468E-05   -0.56058E-05  4376   0.698E-03    0.472E-03
RMM:   2    -0.229844967614E+04   -0.69846E-06   -0.94291E-06  2297   0.235E-03
 158 F= -.23187359E+04 E0= -.23187359E+04  d E =-.109249E-04  mag=     3.0000
       N       E                     dE             d eps       ncg     rms          rms(c)
DAV:   1    -0.229844967199E+04    0.34508E-05   -0.73586E-04  4176   0.243E-02    0.106E-02
RMM:   2    -0.229844968286E+04   -0.10868E-04   -0.10562E-04  2909   0.618E-03    0.138E-02
RMM:   3    -0.229844968304E+04   -0.18388E-06   -0.12525E-05  2282   0.358E-03
 159 F= -.23187359E+04 E0= -.23187359E+04  d E =-.117867E-04  mag=     3.0000
       N       E                     dE             d eps       ncg     rms          rms(c)
DAV:   1    -0.229844967982E+04    0.30372E-05   -0.87123E-05  4600   0.849E-03    0.523E-03
RMM:   2    -0.229844968093E+04   -0.11066E-05   -0.13796E-05  2341   0.247E-03
 160 F= -.23187359E+04 E0= -.23187359E+04  d E =-.113476E-04  mag=     3.0000
       N       E                     dE             d eps       ncg     rms          rms(c)
DAV:   1    -0.229844967082E+04    0.90053E-05   -0.67165E-04  4144   0.228E-02    0.102E-02
RMM:   2    -0.229844968156E+04   -0.10741E-04   -0.10638E-04  2923   0.607E-03    0.133E-02
RMM:   3    -0.229844968161E+04   -0.54453E-07   -0.10717E-05  2257   0.339E-03
 161 F= -.23187359E+04 E0= -.23187359E+04  d E =-.933082E-05  mag=     3.0000
       N       E                     dE             d eps       ncg     rms          rms(c)
DAV:   1    -0.229844967988E+04    0.16800E-05   -0.94804E-06  2888   0.316E-03    0.327E-03
RMM:   2    -0.229844967999E+04   -0.10885E-06   -0.21189E-06  2196   0.189E-03
 162 F= -.23187359E+04 E0= -.23187359E+04  d E =-.865053E-05  mag=     3.0000
       N       E                     dE             d eps       ncg     rms          rms(c)
DAV:   1    -0.229844967761E+04    0.22689E-05   -0.51324E-04  4096   0.197E-02    0.869E-03
RMM:   2    -0.229844968575E+04   -0.81437E-05   -0.82197E-05  2874   0.485E-03
 163 F= -.23187359E+04 E0= -.23187359E+04  d E =-.104645E-04  mag=     3.0000
       N       E                     dE             d eps       ncg     rms          rms(c)
DAV:   1    -0.229844968249E+04   -0.48772E-05   -0.21823E-04  4416   0.130E-02    0.108E-02
RMM:   2    -0.229844969454E+04   -0.12054E-04   -0.49975E-05  2704   0.388E-03    0.335E-02
RMM:   3    -0.229844968565E+04    0.88878E-05   -0.82657E-06  2270   0.247E-03
 164 F= -.23187359E+04 E0= -.23187359E+04  d E =-.133491E-04  mag=     3.0000
       N       E                     dE             d eps       ncg     rms          rms(c)
DAV:   1    -0.229844966465E+04    0.29888E-04   -0.81552E-04  4144   0.248E-02    0.113E-02
RMM:   2    -0.229844967696E+04   -0.12310E-04   -0.13341E-04  3099   0.623E-03    0.804E-03
RMM:   3    -0.229844967825E+04   -0.12840E-05   -0.11682E-05  2454   0.332E-03
 165 F= -.23187359E+04 E0= -.23187359E+04  d E =-.119144E-04  mag=     3.0000
       N       E                     dE             d eps       ncg     rms          rms(c)
DAV:   1    -0.229844967883E+04   -0.18707E-05   -0.34567E-04  4048   0.162E-02    0.742E-03
RMM:   2    -0.229844968495E+04   -0.61138E-05   -0.53156E-05  2636   0.406E-03
 166 F= -.23187359E+04 E0= -.23187359E+04  d E =-.147990E-04  mag=     3.0000
       N       E                     dE             d eps       ncg     rms          rms(c)
DAV:   1    -0.229844967788E+04    0.95402E-06   -0.74633E-04  4064   0.227E-02    0.102E-02
RMM:   2    -0.229844968954E+04   -0.11660E-04   -0.12533E-04  3000   0.594E-03    0.699E-03
RMM:   3    -0.229844969121E+04   -0.16732E-05   -0.14275E-05  2255   0.347E-03
 167 F= -.23187359E+04 E0= -.23187359E+04  d E =-.940575E-05  mag=     3.0000
       N       E                     dE             d eps       ncg     rms          rms(c)
DAV:   1    -0.229844968928E+04    0.25664E-06   -0.61414E-05  3720   0.676E-03    0.406E-03
RMM:   2    -0.229844969056E+04   -0.12789E-05   -0.12569E-05  2313   0.250E-03
 168 F= -.23187359E+04 E0= -.23187359E+04  d E =-.963061E-05  mag=     3.0000
       N       E                     dE             d eps       ncg     rms          rms(c)
DAV:   1    -0.229844969050E+04   -0.12171E-05   -0.49285E-04  4128   0.201E-02    0.991E-03
RMM:   2    -0.229844970123E+04   -0.10727E-04   -0.84136E-05  2825   0.533E-03    0.213E-02
RMM:   3    -0.229844969817E+04    0.30572E-05   -0.96364E-06  2238   0.316E-03
 169 F= -.23187360E+04 E0= -.23187360E+04  d E =-.125341E-04  mag=     3.0000
       N       E                     dE             d eps       ncg     rms          rms(c)
DAV:   1    -0.229844969320E+04    0.80228E-05   -0.21636E-04  4200   0.133E-02    0.712E-03
RMM:   2    -0.229844969694E+04   -0.37340E-05   -0.36775E-05  2661   0.372E-03
 170 F= -.23187360E+04 E0= -.23187360E+04  d E =-.145996E-04  mag=     3.0000
       N       E                     dE             d eps       ncg     rms          rms(c)
DAV:   1    -0.229844969128E+04    0.19259E-05   -0.40819E-04  4096   0.178E-02    0.102E-02
RMM:   2    -0.229844970245E+04   -0.11170E-04   -0.77014E-05  2967   0.505E-03    0.250E-02
RMM:   3    -0.229844969782E+04    0.46269E-05   -0.91706E-06  2312   0.309E-03
 171 F= -.23187360E+04 E0= -.23187360E+04  d E =-.611676E-05  mag=     3.0000
       N       E                     dE             d eps       ncg     rms          rms(c)
DAV:   1    -0.229844969771E+04    0.47395E-05   -0.17108E-06  3072   0.147E-03    0.298E-03
RMM:   2    -0.229844969773E+04   -0.26310E-07   -0.44388E-07  1857   0.899E-04
 172 F= -.23187360E+04 E0= -.23187360E+04  d E =-.595099E-05  mag=     3.0000
       N       E                     dE             d eps       ncg     rms          rms(c)
DAV:   1    -0.229844969497E+04    0.27416E-05   -0.31683E-04  4064   0.154E-02    0.697E-03
RMM:   2    -0.229844970042E+04   -0.54506E-05   -0.51905E-05  2578   0.401E-03
 173 F= -.23187360E+04 E0= -.23187360E+04  d E =-.715584E-05  mag=     3.0000
       N       E                     dE             d eps       ncg     rms          rms(c)
DAV:   1    -0.229844969790E+04   -0.29302E-05   -0.51813E-05  3440   0.669E-03    0.693E-03
RMM:   2    -0.229844970301E+04   -0.51119E-05   -0.16024E-05  2340   0.329E-03
 174 F= -.23187360E+04 E0= -.23187360E+04  d E =-.114170E-04  mag=     3.0000
       N       E                     dE             d eps       ncg     rms          rms(c)
DAV:   1    -0.229844969422E+04    0.36767E-05   -0.32785E-04  4072   0.155E-02    0.700E-03
RMM:   2    -0.229844969933E+04   -0.51113E-05   -0.55416E-05  2587   0.413E-03
 175 F= -.23187360E+04 E0= -.23187360E+04  d E =-.309955E-05  mag=     3.0000
