       N       E                     dE             d eps       ncg     rms          rms(c)
DAV:   1     0.130544418441E+05    0.13054E+05   -0.83876E+05  4528   0.144E+03
DAV:   2    -0.989352484346E+03   -0.14044E+05   -0.13410E+05  4920   0.331E+02
DAV:   3    -0.246239777806E+04   -0.14730E+04   -0.14545E+04  5488   0.115E+02
DAV:   4    -0.250734889136E+04   -0.44951E+02   -0.44696E+02  6696   0.289E+01
DAV:   5    -0.250825810565E+04   -0.90921E+00   -0.90716E+00  6216   0.350E+00    0.170E+02
RMM:   6    -0.148561324655E+04    0.10226E+04   -0.19265E+03  4441   0.381E+01    0.720E+01
RMM:   7    -0.165483779963E+04   -0.16922E+03   -0.29132E+02  5084   0.143E+01    0.477E+01
RMM:   8    -0.171390801726E+04   -0.59070E+02   -0.37501E+01  5407   0.682E+00    0.431E+01
RMM:   9    -0.179364081135E+04   -0.79733E+02   -0.68224E+01  5127   0.785E+00    0.360E+01
RMM:  10    -0.191290743204E+04   -0.11927E+03   -0.58662E+01  5330   0.735E+00    0.281E+01
RMM:  11    -0.196079561199E+04   -0.47888E+02   -0.21507E+01  5111   0.409E+00    0.205E+01
RMM:  12    -0.204656444134E+04   -0.85769E+02   -0.33024E+01  4933   0.454E+00    0.173E+01
RMM:  13    -0.209062283801E+04   -0.44058E+02   -0.15253E+01  5345   0.323E+00    0.150E+01
RMM:  14    -0.217193190380E+04   -0.81309E+02   -0.44019E+01  4478   0.501E+00    0.102E+01
RMM:  15    -0.226489426692E+04   -0.92962E+02   -0.84824E+01  4546   0.631E+00    0.850E+00
RMM:  16    -0.228870034170E+04   -0.23806E+02   -0.21214E+01  4599   0.393E+00    0.622E+00
RMM:  17    -0.229831221529E+04   -0.96119E+01   -0.10322E+01  4667   0.207E+00    0.538E+00
RMM:  18    -0.229992647676E+04   -0.16143E+01   -0.13513E+00  5097   0.112E+00    0.432E+00
RMM:  19    -0.230261565514E+04   -0.26892E+01   -0.14786E+00  4451   0.789E-01    0.233E+00
RMM:  20    -0.230372862893E+04   -0.11130E+01   -0.37873E-01  4688   0.512E-01    0.157E+00
RMM:  21    -0.230409362187E+04   -0.36499E+00   -0.16156E-01  4854   0.250E-01    0.100E+00
RMM:  22    -0.230432122574E+04   -0.22760E+00   -0.97749E-02  4804   0.201E-01    0.842E-01
RMM:  23    -0.230448964530E+04   -0.16842E+00   -0.79200E-02  4698   0.165E-01    0.403E-01
RMM:  24    -0.230455414977E+04   -0.64504E-01   -0.28756E-02  4747   0.108E-01    0.324E-01
RMM:  25    -0.230457706664E+04   -0.22917E-01   -0.70603E-03  4852   0.516E-02    0.175E-01
RMM:  26    -0.230461737074E+04   -0.40304E-01   -0.78563E-03  4428   0.579E-02    0.116E-01
RMM:  27    -0.230463758080E+04   -0.20210E-01   -0.39501E-03  4530   0.447E-02    0.782E-02
RMM:  28    -0.230464949547E+04   -0.11915E-01   -0.27593E-03  4547   0.375E-02    0.507E-02
RMM:  29    -0.230465540131E+04   -0.59058E-02   -0.17620E-03  4515   0.291E-02    0.521E-02
RMM:  30    -0.230465670489E+04   -0.13036E-02   -0.44283E-04  4281   0.157E-02    0.196E-02
RMM:  31    -0.230465760853E+04   -0.90364E-03   -0.23400E-04  3827   0.948E-03    0.130E-02
RMM:  32    -0.230465791342E+04   -0.30489E-03   -0.87048E-05  3646   0.785E-03    0.593E-03
RMM:  33    -0.230465799980E+04   -0.86381E-04   -0.28975E-05  3082   0.421E-03    0.300E-03
RMM:  34    -0.230465803673E+04   -0.36928E-04   -0.96061E-06  2851   0.352E-03    0.188E-03
RMM:  35    -0.230465805883E+04   -0.22101E-04   -0.63776E-06  2727   0.247E-03    0.123E-03
RMM:  36    -0.230465806573E+04   -0.68995E-05   -0.29988E-06  2459   0.220E-03
   1 F= -.23258280E+04 E0= -.23258265E+04  d E =-.232583E+04  mag=     4.0001
       N       E                     dE             d eps       ncg     rms          rms(c)
DAV:   1    -0.230479685957E+04   -0.13880E+00   -0.65518E+00  5152   0.210E+00    0.159E+00
RMM:   2    -0.230485750686E+04   -0.60647E-01   -0.85074E-01  6332   0.478E-01    0.101E+00
RMM:   3    -0.230487481084E+04   -0.17304E-01   -0.11079E-01  6048   0.205E-01    0.147E+00
RMM:   4    -0.230485792399E+04    0.16887E-01   -0.27980E-02  6222   0.791E-02    0.796E-01
RMM:   5    -0.230485935780E+04   -0.14338E-02   -0.17644E-02  6057   0.538E-02    0.824E-01
RMM:   6    -0.230485294920E+04    0.64086E-02   -0.73014E-03  5818   0.367E-02    0.281E-01
RMM:   7    -0.230485293042E+04    0.18785E-04   -0.24142E-03  5272   0.190E-02    0.255E-01
RMM:   8    -0.230485227082E+04    0.65960E-03   -0.69953E-04  4590   0.125E-02    0.747E-02
RMM:   9    -0.230485226176E+04    0.90550E-05   -0.21896E-04  3848   0.797E-03    0.305E-02
RMM:  10    -0.230485229807E+04   -0.36305E-04   -0.55232E-05  3062   0.632E-03    0.199E-02
RMM:  11    -0.230485231564E+04   -0.17572E-04   -0.28773E-05  2924   0.508E-03    0.123E-02
RMM:  12    -0.230485233639E+04   -0.20750E-04   -0.24494E-05  2910   0.462E-03    0.705E-03
RMM:  13    -0.230485234664E+04   -0.10248E-04   -0.12208E-05  2869   0.427E-03    0.443E-03
RMM:  14    -0.230485235176E+04   -0.51257E-05   -0.63952E-06  2845   0.312E-03
   2 F= -.23260263E+04 E0= -.23260244E+04  d E =-.198246E+00  mag=     4.0000
       N       E                     dE             d eps       ncg     rms          rms(c)
DAV:   1    -0.230486771770E+04   -0.15371E-01   -0.14742E+00  4848   0.101E+00    0.589E-01
RMM:   2    -0.230488526617E+04   -0.17548E-01   -0.19520E-01  6331   0.228E-01    0.508E-01
RMM:   3    -0.230488837527E+04   -0.31091E-02   -0.24623E-02  6207   0.955E-02    0.639E-01
RMM:   4    -0.230488404040E+04    0.43349E-02   -0.46077E-03  5773   0.346E-02    0.236E-01
RMM:   5    -0.230488587298E+04   -0.18326E-02   -0.31049E-03  5432   0.231E-02    0.478E-01
RMM:   6    -0.230488374700E+04    0.21260E-02   -0.14188E-03  4998   0.167E-02    0.953E-02
RMM:   7    -0.230488380225E+04   -0.55246E-04   -0.43016E-04  3306   0.997E-03    0.892E-02
RMM:   8    -0.230488375448E+04    0.47773E-04   -0.19023E-04  3015   0.744E-03    0.508E-02
RMM:   9    -0.230488376603E+04   -0.11555E-04   -0.84210E-05  3072   0.587E-03    0.284E-02
RMM:  10    -0.230488377453E+04   -0.84957E-05   -0.40791E-05  2929   0.512E-03
   3 F= -.23260651E+04 E0= -.23260640E+04  d E =-.237122E+00  mag=     4.0000
       N       E                     dE             d eps       ncg     rms          rms(c)
DAV:   1    -0.230480679659E+04    0.76969E-01   -0.56382E+00  4696   0.201E+00    0.917E-01
RMM:   2    -0.230487989231E+04   -0.73096E-01   -0.75281E-01  6316   0.457E-01    0.984E-01
RMM:   3    -0.230488278097E+04   -0.28887E-02   -0.96472E-02  6236   0.189E-01    0.881E-01
RMM:   4    -0.230487481697E+04    0.79640E-02   -0.11103E-02  5722   0.543E-02    0.438E-01
RMM:   5    -0.230487646534E+04   -0.16484E-02   -0.54126E-03  5618   0.338E-02    0.588E-01
RMM:   6    -0.230487388963E+04    0.25757E-02   -0.37856E-03  5218   0.281E-02    0.254E-01
RMM:   7    -0.230487355055E+04    0.33908E-03   -0.15273E-03  4927   0.197E-02    0.161E-01
RMM:   8    -0.230487337460E+04    0.17595E-03   -0.35788E-04  4375   0.100E-02    0.695E-02
RMM:   9    -0.230487349614E+04   -0.12154E-03   -0.18368E-04  3570   0.774E-03    0.568E-02
RMM:  10    -0.230487355695E+04   -0.60811E-04   -0.61135E-05  3054   0.589E-03    0.407E-02
RMM:  11    -0.230487360361E+04   -0.46663E-04   -0.59663E-05  3074   0.591E-03    0.167E-02
RMM:  12    -0.230487363902E+04   -0.35407E-04   -0.27927E-05  2926   0.503E-03    0.647E-03
RMM:  13    -0.230487365896E+04   -0.19943E-04   -0.96028E-06  2878   0.372E-03    0.467E-03
RMM:  14    -0.230487367389E+04   -0.14931E-04   -0.52773E-06  2771   0.260E-03    0.350E-03
RMM:  15    -0.230487368358E+04   -0.96940E-05   -0.34359E-06  2597   0.225E-03
   4 F= -.23260768E+04 E0= -.23260766E+04  d E =-.248832E+00  mag=     4.0000
       N       E                     dE             d eps       ncg     rms          rms(c)
DAV:   1    -0.230478008700E+04    0.93587E-01   -0.17080E+01  4544   0.440E+00    0.175E+00
RMM:   2    -0.230497177507E+04   -0.19169E+00   -0.20770E+00  6013   0.928E-01    0.118E+00
RMM:   3    -0.230499880337E+04   -0.27028E-01   -0.25719E-01  5890   0.426E-01    0.177E+00
RMM:   4    -0.230497063849E+04    0.28165E-01   -0.34938E-02  6207   0.107E-01    0.848E-01
RMM:   5    -0.230496802197E+04    0.26165E-02   -0.14654E-02  5800   0.659E-02    0.789E-01
RMM:   6    -0.230496562833E+04    0.23936E-02   -0.10915E-02  5798   0.559E-02    0.597E-01
RMM:   7    -0.230496121825E+04    0.44101E-02   -0.52885E-03  5948   0.421E-02    0.159E-01
RMM:   8    -0.230496093095E+04    0.28730E-03   -0.75801E-04  5198   0.164E-02    0.602E-02
RMM:   9    -0.230496097715E+04   -0.46202E-04   -0.21751E-04  4357   0.118E-02    0.411E-02
RMM:  10    -0.230496102777E+04   -0.50623E-04   -0.10895E-04  4106   0.839E-03    0.249E-02
RMM:  11    -0.230496105983E+04   -0.32057E-04   -0.40195E-05  3295   0.660E-03    0.168E-02
RMM:  12    -0.230496110084E+04   -0.41010E-04   -0.40420E-05  3336   0.585E-03    0.644E-03
RMM:  13    -0.230496112437E+04   -0.23529E-04   -0.12836E-05  2853   0.476E-03    0.432E-03
RMM:  14    -0.230496114026E+04   -0.15891E-04   -0.72704E-06  2830   0.305E-03    0.240E-03
RMM:  15    -0.230496115110E+04   -0.10838E-04   -0.43213E-06  2820   0.266E-03    0.187E-03
RMM:  16    -0.230496115525E+04   -0.41543E-05   -0.24157E-06  2511   0.187E-03
   5 F= -.23261648E+04 E0= -.23261648E+04  d E =-.879561E-01  mag=     4.0000
       N       E                     dE             d eps       ncg     rms          rms(c)
DAV:   1    -0.230496070131E+04    0.44979E-03   -0.60971E-02  5208   0.267E-01    0.102E-01
RMM:   2    -0.230496137738E+04   -0.67607E-03   -0.74140E-03  6044   0.559E-02    0.633E-02
RMM:   3    -0.230496144725E+04   -0.69869E-04   -0.86553E-04  3957   0.247E-02    0.814E-02
RMM:   4    -0.230496137572E+04    0.71531E-04   -0.11233E-04  2954   0.767E-03    0.407E-02
RMM:   5    -0.230496137441E+04    0.13143E-05   -0.48055E-05  2901   0.521E-03
   6 F= -.23261652E+04 E0= -.23261652E+04  d E =-.883500E-01  mag=     4.0000
       N       E                     dE             d eps       ncg     rms          rms(c)
DAV:   1    -0.230479732809E+04    0.16405E+00   -0.13327E+01  4544   0.327E+00    0.121E+00
RMM:   2    -0.230508785522E+04   -0.29053E+00   -0.30028E+00  6604   0.851E-01    0.108E+00
RMM:   3    -0.230510396367E+04   -0.16108E-01   -0.34963E-01  6396   0.327E-01    0.688E-01
RMM:   4    -0.230510215720E+04    0.18065E-02   -0.31614E-02  5984   0.716E-02    0.731E-01
RMM:   5    -0.230509911968E+04    0.30375E-02   -0.54445E-03  5551   0.317E-02    0.462E-01
RMM:   6    -0.230509802463E+04    0.10950E-02   -0.65863E-03  5733   0.383E-02    0.444E-01
RMM:   7    -0.230509623552E+04    0.17891E-02   -0.34307E-03  5561   0.301E-02    0.198E-01
RMM:   8    -0.230509585968E+04    0.37583E-03   -0.71204E-04  5174   0.148E-02    0.513E-02
RMM:   9    -0.230509598071E+04   -0.12103E-03   -0.13964E-04  3798   0.899E-03    0.424E-02
RMM:  10    -0.230509606958E+04   -0.88864E-04   -0.95715E-05  3378   0.695E-03    0.160E-02
RMM:  11    -0.230509610489E+04   -0.35313E-04   -0.23365E-05  2937   0.508E-03    0.955E-03
RMM:  12    -0.230509613669E+04   -0.31804E-04   -0.18227E-05  2898   0.406E-03    0.615E-03
RMM:  13    -0.230509615747E+04   -0.20772E-04   -0.10059E-05  2846   0.401E-03    0.445E-03
RMM:  14    -0.230509616835E+04   -0.10887E-04   -0.68654E-06  2824   0.293E-03    0.233E-03
RMM:  15    -0.230509617308E+04   -0.47227E-05   -0.34764E-06  2720   0.256E-03
   7 F= -.23262890E+04 E0= -.23262890E+04  d E =-.123805E+00  mag=     3.9999
       N       E                     dE             d eps       ncg     rms          rms(c)
DAV:   1    -0.230234105846E+04    0.27551E+01   -0.11965E+02  4480   0.987E+00    0.382E+00
RMM:   2    -0.230532550364E+04   -0.29844E+01   -0.29550E+01  6623   0.283E+00    0.464E+00
RMM:   3    -0.230529985564E+04    0.25648E-01   -0.32642E+00  6362   0.103E+00    0.327E+00
RMM:   4    -0.230531635615E+04   -0.16501E-01   -0.38950E-01  6364   0.238E-01    0.331E+00
RMM:   5    -0.230523194179E+04    0.84414E-01   -0.67873E-02  6219   0.112E-01    0.127E+00
RMM:   6    -0.230520470887E+04    0.27233E-01   -0.59231E-02  5168   0.113E-01    0.924E-01
RMM:   7    -0.230519180530E+04    0.12904E-01   -0.30416E-02  5435   0.111E-01    0.139E+00
RMM:   8    -0.230518561940E+04    0.61859E-02   -0.45374E-03  5841   0.344E-02    0.124E+00
RMM:   9    -0.230518577190E+04   -0.15250E-03   -0.24924E-04  3682   0.998E-03    0.125E+00
RMM:  10    -0.230518424967E+04    0.15222E-02   -0.36644E-04  3907   0.923E-03    0.119E+00
RMM:  11    -0.230517770216E+04    0.65475E-02   -0.19325E-02  4847   0.566E-02    0.506E-01
RMM:  12    -0.230518441060E+04   -0.67084E-02   -0.70962E-03  4866   0.451E-02    0.401E-01
RMM:  13    -0.230519564921E+04   -0.11239E-01   -0.76380E-03  4806   0.409E-02    0.377E-01
RMM:  14    -0.230520579885E+04   -0.10150E-01   -0.84679E-03  4889   0.452E-02    0.281E-01
RMM:  15    -0.230521639487E+04   -0.10596E-01   -0.99237E-03  4786   0.453E-02    0.206E-01
RMM:  16    -0.230522304202E+04   -0.66471E-02   -0.54668E-03  4749   0.381E-02    0.136E-01
RMM:  17    -0.230522735512E+04   -0.43131E-02   -0.24300E-03  4500   0.238E-02    0.109E-01
RMM:  18    -0.230523081731E+04   -0.34622E-02   -0.29032E-03  4514   0.257E-02    0.642E-02
RMM:  19    -0.230523181132E+04   -0.99401E-03   -0.59897E-04  4203   0.155E-02    0.433E-02
RMM:  20    -0.230523236566E+04   -0.55434E-03   -0.35442E-04  3991   0.957E-03    0.259E-02
RMM:  21    -0.230523254223E+04   -0.17656E-03   -0.99768E-05  3370   0.661E-03    0.149E-02
RMM:  22    -0.230523258823E+04   -0.46008E-04   -0.38242E-05  2976   0.464E-03    0.145E-02
RMM:  23    -0.230523259681E+04   -0.85741E-05   -0.13735E-05  2886   0.370E-03
   8 F= -.23264112E+04 E0= -.23264099E+04  d E =-.246056E+00  mag=     2.0305
       N       E                     dE             d eps       ncg     rms          rms(c)
DAV:   1    -0.230524282940E+04   -0.10241E-01   -0.45614E-01  5336   0.566E-01    0.195E-01
RMM:   2    -0.230525259537E+04   -0.97660E-02   -0.10033E-01  6656   0.153E-01    0.182E-01
RMM:   3    -0.230525348609E+04   -0.89072E-03   -0.11445E-02  5355   0.551E-02    0.187E-01
RMM:   4    -0.230525315983E+04    0.32626E-03   -0.10299E-03  3285   0.126E-02    0.854E-02
RMM:   5    -0.230525314052E+04    0.19315E-04   -0.17141E-04  3004   0.675E-03    0.835E-02
RMM:   6    -0.230525310815E+04    0.32369E-04   -0.17874E-04  3592   0.694E-03    0.750E-02
RMM:   7    -0.230525305584E+04    0.52307E-04   -0.11648E-04  3058   0.641E-03    0.297E-02
RMM:   8    -0.230525304870E+04    0.71406E-05   -0.17737E-05  2893   0.369E-03
   9 F= -.23264317E+04 E0= -.23264309E+04  d E =-.204477E-01  mag=     2.0222
       N       E                     dE             d eps       ncg     rms          rms(c)
DAV:   1    -0.230520084769E+04    0.52208E-01   -0.41193E+00  4560   0.170E+00    0.584E-01
RMM:   2    -0.230528970833E+04   -0.88861E-01   -0.91071E-01  6662   0.461E-01    0.582E-01
RMM:   3    -0.230529767453E+04   -0.79662E-02   -0.10459E-01  6258   0.165E-01    0.590E-01
RMM:   4    -0.230529443562E+04    0.32389E-02   -0.95831E-03  5595   0.373E-02    0.261E-01
RMM:   5    -0.230529416959E+04    0.26602E-03   -0.15188E-03  4692   0.162E-02    0.240E-01
RMM:   6    -0.230529388591E+04    0.28368E-03   -0.15081E-03  5428   0.180E-02    0.219E-01
RMM:   7    -0.230529338979E+04    0.49612E-03   -0.10439E-03  4956   0.157E-02    0.816E-02
RMM:   8    -0.230529332383E+04    0.65956E-04   -0.14303E-04  3303   0.709E-03    0.244E-02
RMM:   9    -0.230529331559E+04    0.82460E-05   -0.17629E-05  2927   0.447E-03
  10 F= -.23264721E+04 E0= -.23264719E+04  d E =-.608943E-01  mag=     2.0090
       N       E                     dE             d eps       ncg     rms          rms(c)
DAV:   1    -0.230486957358E+04    0.42375E+00   -0.16596E+01  4496   0.339E+00    0.116E+00
RMM:   2    -0.230523383967E+04   -0.36427E+00   -0.37209E+00  6655   0.942E-01    0.125E+00
RMM:   3    -0.230526715128E+04   -0.33312E-01   -0.43257E-01  6306   0.349E-01    0.129E+00
RMM:   4    -0.230525181629E+04    0.15335E-01   -0.39094E-02  6216   0.769E-02    0.532E-01
RMM:   5    -0.230525070696E+04    0.11093E-02   -0.62310E-03  5651   0.326E-02    0.484E-01
RMM:   6    -0.230524931692E+04    0.13900E-02   -0.61409E-03  5927   0.356E-02    0.418E-01
RMM:   7    -0.230524756802E+04    0.17489E-02   -0.43907E-03  5823   0.308E-02    0.172E-01
RMM:   8    -0.230524726690E+04    0.30112E-03   -0.64436E-04  4810   0.134E-02    0.600E-02
RMM:   9    -0.230524722149E+04    0.45408E-04   -0.83694E-05  3157   0.672E-03    0.394E-02
RMM:  10    -0.230524718765E+04    0.33842E-04   -0.10314E-04  3046   0.587E-03    0.104E-02
RMM:  11    -0.230524718748E+04    0.17116E-06   -0.16062E-05  2937   0.392E-03
  11 F= -.23264268E+04 E0= -.23264268E+04  d E =-.155693E-01  mag=     2.0020
       N       E                     dE             d eps       ncg     rms          rms(c)
DAV:   1    -0.230507369225E+04    0.17350E+00   -0.97397E+00  4512   0.261E+00    0.897E-01
RMM:   2    -0.230528833536E+04   -0.21464E+00   -0.22066E+00  6661   0.740E-01    0.920E-01
RMM:   3    -0.230531116640E+04   -0.22831E-01   -0.26923E-01  6326   0.264E-01    0.983E-01
RMM:   4    -0.230530161186E+04    0.95545E-02   -0.21617E-02  5951   0.576E-02    0.367E-01
RMM:   5    -0.230530176044E+04   -0.14858E-03   -0.40124E-03  5612   0.285E-02    0.418E-01
RMM:   6    -0.230529993556E+04    0.18249E-02   -0.29241E-03  5813   0.249E-02    0.208E-01
RMM:   7    -0.230529950025E+04    0.43532E-03   -0.12067E-03  5513   0.176E-02    0.663E-02
RMM:   8    -0.230529951646E+04   -0.16218E-04   -0.28630E-04  3160   0.100E-02    0.739E-02
RMM:   9    -0.230529943484E+04    0.81625E-04   -0.77219E-05  2922   0.629E-03    0.234E-02
RMM:  10    -0.230529942291E+04    0.11926E-04   -0.43497E-05  2957   0.382E-03    0.102E-02
RMM:  11    -0.230529942258E+04    0.32780E-06   -0.47653E-06  2851   0.273E-03
  12 F= -.23264784E+04 E0= -.23264783E+04  d E =-.671510E-01  mag=     2.0020
       N       E                     dE             d eps       ncg     rms          rms(c)
DAV:   1    -0.230535269760E+04   -0.53275E-01   -0.19126E-01  4608   0.432E-01    0.177E-01
RMM:   2    -0.230535650000E+04   -0.38024E-02   -0.42994E-02  6210   0.108E-01    0.107E-01
RMM:   3    -0.230535689676E+04   -0.39676E-03   -0.49968E-03  5578   0.463E-02    0.131E-01
RMM:   4    -0.230535669080E+04    0.20596E-03   -0.40127E-04  3460   0.110E-02    0.598E-02
RMM:   5    -0.230535665170E+04    0.39097E-04   -0.17561E-04  3956   0.914E-03    0.514E-02
RMM:   6    -0.230535661329E+04    0.38410E-04   -0.10217E-04  3071   0.725E-03    0.234E-02
RMM:   7    -0.230535660624E+04    0.70495E-05   -0.26276E-05  2912   0.557E-03
  13 F= -.23265358E+04 E0= -.23265357E+04  d E =-.573818E-01  mag=     2.0017
       N       E                     dE             d eps       ncg     rms          rms(c)
DAV:   1    -0.230547229358E+04   -0.11568E+00   -0.17212E+00  4512   0.129E+00    0.531E-01
RMM:   2    -0.230550625613E+04   -0.33963E-01   -0.38460E-01  6217   0.319E-01    0.317E-01
RMM:   3    -0.230550998510E+04   -0.37290E-02   -0.45875E-02  5956   0.142E-01    0.395E-01
RMM:   4    -0.230550811935E+04    0.18658E-02   -0.36179E-03  5933   0.324E-02    0.177E-01
RMM:   5    -0.230550781682E+04    0.30253E-03   -0.15652E-03  5812   0.225E-02    0.159E-01
RMM:   6    -0.230550745767E+04    0.35916E-03   -0.92474E-04  5294   0.169E-02    0.724E-02
RMM:   7    -0.230550739251E+04    0.65152E-04   -0.20850E-04  4428   0.974E-03    0.714E-02
RMM:   8    -0.230550733982E+04    0.52689E-04   -0.66440E-05  2910   0.666E-03    0.310E-02
RMM:   9    -0.230550730721E+04    0.32618E-04   -0.31793E-05  3002   0.458E-03    0.108E-02
RMM:  10    -0.230550729680E+04    0.10408E-04   -0.20759E-05  2961   0.442E-03    0.721E-03
RMM:  11    -0.230550729532E+04    0.14786E-05   -0.99288E-06  2845   0.409E-03
  14 F= -.23266871E+04 E0= -.23266870E+04  d E =-.208689E+00  mag=     2.0008
       N       E                     dE             d eps       ncg     rms          rms(c)
DAV:   1    -0.230557742189E+04   -0.70125E-01   -0.69021E+00  4496   0.259E+00    0.105E+00
RMM:   2    -0.230571213507E+04   -0.13471E+00   -0.15174E+00  6154   0.629E-01    0.653E-01
RMM:   3    -0.230572836046E+04   -0.16225E-01   -0.19004E-01  5936   0.285E-01    0.866E-01
RMM:   4    -0.230571983265E+04    0.85278E-02   -0.14590E-02  6408   0.651E-02    0.382E-01
RMM:   5    -0.230571946325E+04    0.36940E-03   -0.62671E-03  5895   0.407E-02    0.421E-01
RMM:   6    -0.230571780334E+04    0.16599E-02   -0.41615E-03  5692   0.322E-02    0.282E-01
RMM:   7    -0.230571724697E+04    0.55637E-03   -0.20173E-03  5559   0.252E-02    0.190E-01
RMM:   8    -0.230571667747E+04    0.56950E-03   -0.52762E-04  5144   0.137E-02    0.459E-02
RMM:   9    -0.230571656194E+04    0.11552E-03   -0.15676E-04  4013   0.909E-03    0.212E-02
RMM:  10    -0.230571652822E+04    0.33727E-04   -0.80340E-05  3821   0.718E-03    0.167E-02
RMM:  11    -0.230571652423E+04    0.39883E-05   -0.23149E-05  3079   0.551E-03
  15 F= -.23268977E+04 E0= -.23268976E+04  d E =-.419258E+00  mag=     2.0002
       N       E                     dE             d eps       ncg     rms          rms(c)
DAV:   1    -0.230522688898E+04    0.48964E+00   -0.27657E+01  4480   0.517E+00    0.209E+00
RMM:   2    -0.230576587707E+04   -0.53899E+00   -0.60201E+00  6150   0.125E+00    0.138E+00
RMM:   3    -0.230584311858E+04   -0.77242E-01   -0.79157E-01  5929   0.572E-01    0.209E+00
RMM:   4    -0.230579794253E+04    0.45176E-01   -0.61695E-02  6511   0.133E-01    0.900E-01
RMM:   5    -0.230579481846E+04    0.31241E-02   -0.22330E-02  5993   0.719E-02    0.834E-01
RMM:   6    -0.230578860498E+04    0.62135E-02   -0.18633E-02  5838   0.654E-02    0.611E-01
RMM:   7    -0.230578608448E+04    0.25205E-02   -0.13260E-02  6071   0.592E-02    0.443E-01
RMM:   8    -0.230578299740E+04    0.30871E-02   -0.33277E-03  6141   0.326E-02    0.134E-01
RMM:   9    -0.230578246521E+04    0.53219E-03   -0.81535E-04  5043   0.167E-02    0.652E-02
RMM:  10    -0.230578233177E+04    0.13344E-03   -0.52486E-04  4888   0.139E-02    0.502E-02
RMM:  11    -0.230578234647E+04   -0.14703E-04   -0.13441E-04  4304   0.903E-03    0.351E-02
RMM:  12    -0.230578242614E+04   -0.79671E-04   -0.11659E-04  4115   0.822E-03    0.208E-02
RMM:  13    -0.230578251324E+04   -0.87099E-04   -0.58456E-05  3514   0.700E-03    0.106E-02
RMM:  14    -0.230578255938E+04   -0.46142E-04   -0.17868E-05  2911   0.484E-03    0.616E-03
RMM:  15    -0.230578258583E+04   -0.26444E-04   -0.71403E-06  2866   0.325E-03    0.480E-03
RMM:  16    -0.230578261102E+04   -0.25191E-04   -0.58181E-06  2843   0.253E-03    0.365E-03
RMM:  17    -0.230578262366E+04   -0.12648E-04   -0.33152E-06  2672   0.211E-03    0.207E-03
RMM:  18    -0.230578262791E+04   -0.42458E-05   -0.18367E-06  2435   0.158E-03
  16 F= -.23269668E+04 E0= -.23269668E+04  d E =-.488449E+00  mag=     2.0000
       N       E                     dE             d eps       ncg     rms          rms(c)
DAV:   1    -0.230574821024E+04    0.34413E-01   -0.32298E+00  4640   0.175E+00    0.725E-01
RMM:   2    -0.230581162669E+04   -0.63416E-01   -0.68666E-01  6149   0.428E-01    0.574E-01
RMM:   3    -0.230581830647E+04   -0.66798E-02   -0.81875E-02  5957   0.189E-01    0.669E-01
RMM:   4    -0.230581289299E+04    0.54135E-02   -0.72103E-03  6082   0.479E-02    0.280E-01
RMM:   5    -0.230581326030E+04   -0.36731E-03   -0.30021E-03  5580   0.276E-02    0.364E-01
RMM:   6    -0.230581194365E+04    0.13166E-02   -0.21226E-03  5631   0.247E-02    0.186E-01
RMM:   7    -0.230581162245E+04    0.32121E-03   -0.94607E-04  5233   0.175E-02    0.102E-01
RMM:   8    -0.230581143448E+04    0.18797E-03   -0.21970E-04  4904   0.954E-03    0.326E-02
RMM:   9    -0.230581140450E+04    0.29977E-04   -0.49287E-05  3120   0.649E-03    0.205E-02
RMM:  10    -0.230581139143E+04    0.13070E-04   -0.58388E-05  3455   0.559E-03    0.134E-02
RMM:  11    -0.230581139419E+04   -0.27616E-05   -0.14773E-05  2932   0.497E-03
  17 F= -.23269945E+04 E0= -.23269945E+04  d E =-.516101E+00  mag=     2.0000
       N       E                     dE             d eps       ncg     rms          rms(c)
DAV:   1    -0.230585347569E+04   -0.42084E-01   -0.15077E+00  4544   0.125E+00    0.508E-01
RMM:   2    -0.230588128082E+04   -0.27805E-01   -0.29651E-01  6101   0.293E-01    0.440E-01
RMM:   3    -0.230588386461E+04   -0.25838E-02   -0.37095E-02  5963   0.132E-01    0.484E-01
RMM:   4    -0.230588119403E+04    0.26706E-02   -0.35661E-03  5797   0.333E-02    0.214E-01
RMM:   5    -0.230588091460E+04    0.27943E-03   -0.11888E-03  5261   0.186E-02    0.185E-01
RMM:   6    -0.230588080922E+04    0.10539E-03   -0.10258E-03  5279   0.163E-02    0.186E-01
RMM:   7    -0.230588037718E+04    0.43204E-03   -0.56516E-04  4955   0.139E-02    0.441E-02
RMM:   8    -0.230588033044E+04    0.46748E-04   -0.82520E-05  3475   0.661E-03    0.178E-02
RMM:   9    -0.230588031561E+04    0.14825E-04   -0.24664E-05  2972   0.539E-03    0.104E-02
RMM:  10    -0.230588030916E+04    0.64462E-05   -0.18516E-05  2946   0.406E-03
  18 F= -.23270639E+04 E0= -.23270638E+04  d E =-.693553E-01  mag=     2.0000
       N       E                     dE             d eps       ncg     rms          rms(c)
DAV:   1    -0.230574048607E+04    0.13983E+00   -0.13564E+01  4480   0.375E+00    0.152E+00
RMM:   2    -0.230599124375E+04   -0.25076E+00   -0.26675E+00  6125   0.880E-01    0.139E+00
RMM:   3    -0.230602062475E+04   -0.29381E-01   -0.36186E-01  6021   0.392E-01    0.163E+00
RMM:   4    -0.230599229513E+04    0.28330E-01   -0.32694E-02  6355   0.100E-01    0.722E-01
RMM:   5    -0.230598855039E+04    0.37447E-02   -0.10086E-02  5768   0.500E-02    0.533E-01
RMM:   6    -0.230598743524E+04    0.11151E-02   -0.98891E-03  5832   0.487E-02    0.519E-01
RMM:   7    -0.230598392910E+04    0.35061E-02   -0.57617E-03  6149   0.410E-02    0.160E-01
RMM:   8    -0.230598339262E+04    0.53648E-03   -0.80873E-04  5458   0.174E-02    0.601E-02
RMM:   9    -0.230598322993E+04    0.16269E-03   -0.24937E-04  4412   0.108E-02    0.320E-02
RMM:  10    -0.230598316150E+04    0.68429E-04   -0.11865E-04  4075   0.847E-03    0.209E-02
RMM:  11    -0.230598314746E+04    0.14043E-04   -0.40271E-05  3407   0.662E-03    0.142E-02
RMM:  12    -0.230598314869E+04   -0.12355E-05   -0.32669E-05  3203   0.570E-03
  19 F= -.23271681E+04 E0= -.23271681E+04  d E =-.173620E+00  mag=     2.0000
       N       E                     dE             d eps       ncg     rms          rms(c)
DAV:   1    -0.230597750222E+04    0.56452E-02   -0.44924E-01  5120   0.681E-01    0.276E-01
RMM:   2    -0.230598585739E+04   -0.83552E-02   -0.87196E-02  6222   0.161E-01    0.265E-01
RMM:   3    -0.230598659410E+04   -0.73671E-03   -0.10884E-02  5925   0.710E-02    0.289E-01
RMM:   4    -0.230598572648E+04    0.86762E-03   -0.11042E-03  5069   0.184E-02    0.132E-01
RMM:   5    -0.230598559626E+04    0.13022E-03   -0.33844E-04  3443   0.110E-02    0.100E-01
RMM:   6    -0.230598556026E+04    0.36004E-04   -0.35133E-04  4697   0.107E-02    0.961E-02
RMM:   7    -0.230598543145E+04    0.12881E-03   -0.18723E-04  3868   0.922E-03    0.214E-02
RMM:   8    -0.230598541925E+04    0.12204E-04   -0.27598E-05  2970   0.501E-03    0.907E-03
RMM:   9    -0.230598541594E+04    0.33080E-05   -0.97841E-06  2907   0.393E-03
  20 F= -.23271707E+04 E0= -.23271707E+04  d E =-.176164E+00  mag=     2.0000
       N       E                     dE             d eps       ncg     rms          rms(c)
DAV:   1    -0.230598630914E+04   -0.88990E-03   -0.28382E+00  4512   0.155E+00    0.595E-01
RMM:   2    -0.230605121353E+04   -0.64904E-01   -0.66126E-01  6545   0.398E-01    0.700E-01
RMM:   3    -0.230605480158E+04   -0.35880E-02   -0.80368E-02  6329   0.157E-01    0.601E-01
RMM:   4    -0.230605201291E+04    0.27887E-02   -0.79888E-03  5805   0.389E-02    0.332E-01
RMM:   5    -0.230605106110E+04    0.95182E-03   -0.15414E-03  4942   0.174E-02    0.203E-01
RMM:   6    -0.230605109469E+04   -0.33595E-04   -0.11807E-03  5276   0.157E-02    0.221E-01
RMM:   7    -0.230605049551E+04    0.59918E-03   -0.10903E-03  5359   0.172E-02    0.600E-02
RMM:   8    -0.230605046896E+04    0.26550E-04   -0.16704E-04  3562   0.805E-03    0.267E-02
RMM:   9    -0.230605046373E+04    0.52248E-05   -0.22894E-05  2932   0.500E-03
  21 F= -.23272357E+04 E0= -.23272357E+04  d E =-.649935E-01  mag=     2.0000
       N       E                     dE             d eps       ncg     rms          rms(c)
DAV:   1    -0.230558370931E+04    0.46676E+00   -0.25434E+01  4480   0.467E+00    0.177E+00
RMM:   2    -0.230617966744E+04   -0.59596E+00   -0.60397E+00  6553   0.122E+00    0.228E+00
RMM:   3    -0.230621368253E+04   -0.34015E-01   -0.76921E-01  6405   0.486E-01    0.190E+00
RMM:   4    -0.230618444379E+04    0.29239E-01   -0.68470E-02  6157   0.116E-01    0.104E+00
RMM:   5    -0.230617563771E+04    0.88061E-02   -0.14102E-02  5779   0.526E-02    0.620E-01
RMM:   6    -0.230617435492E+04    0.12828E-02   -0.98863E-03  5886   0.467E-02    0.543E-01
RMM:   7    -0.230617105363E+04    0.33013E-02   -0.76818E-03  6070   0.444E-02    0.267E-01
RMM:   8    -0.230617033731E+04    0.71633E-03   -0.15301E-03  5351   0.211E-02    0.967E-02
RMM:   9    -0.230617031517E+04    0.22141E-04   -0.28409E-04  4325   0.123E-02    0.748E-02
RMM:  10    -0.230617032255E+04   -0.73866E-05   -0.15402E-04  3893   0.829E-03    0.442E-02
RMM:  11    -0.230617035336E+04   -0.30808E-04   -0.45436E-05  3074   0.615E-03    0.301E-02
RMM:  12    -0.230617039356E+04   -0.40199E-04   -0.37391E-05  2995   0.498E-03    0.213E-02
RMM:  13    -0.230617043910E+04   -0.45542E-04   -0.36961E-05  2973   0.505E-03    0.156E-02
RMM:  14    -0.230617046275E+04   -0.23650E-04   -0.16582E-05  2894   0.433E-03    0.104E-02
RMM:  15    -0.230617048261E+04   -0.19864E-04   -0.15185E-05  2905   0.335E-03    0.442E-03
RMM:  16    -0.230617049154E+04   -0.89257E-05   -0.52987E-06  2779   0.284E-03
  22 F= -.23273557E+04 E0= -.23273557E+04  d E =-.185031E+00  mag=     2.0000
       N       E                     dE             d eps       ncg     rms          rms(c)
DAV:   1    -0.230359111678E+04    0.25794E+01   -0.10081E+02  4480   0.944E+00    0.352E+00
RMM:   2    -0.230614619313E+04   -0.25551E+01   -0.25613E+01  6580   0.254E+00    0.527E+00
RMM:   3    -0.230622808253E+04   -0.81889E-01   -0.30767E+00  6432   0.102E+00    0.389E+00
RMM:   4    -0.230608467780E+04    0.14340E+00   -0.27275E-01  6090   0.236E-01    0.196E+00
RMM:   5    -0.230605378376E+04    0.30894E-01   -0.56425E-02  5972   0.113E-01    0.127E+00
RMM:   6    -0.230604062338E+04    0.13160E-01   -0.23238E-02  5518   0.757E-02    0.741E-01
RMM:   7    -0.230603681105E+04    0.38123E-02   -0.16319E-02  5807   0.759E-02    0.462E-01
RMM:   8    -0.230603597590E+04    0.83515E-03   -0.84745E-03  6317   0.471E-02    0.389E-01
RMM:   9    -0.230603403620E+04    0.19397E-02   -0.32795E-03  5615   0.314E-02    0.109E-01
RMM:  10    -0.230603413278E+04   -0.96583E-04   -0.57732E-04  4456   0.150E-02    0.777E-02
RMM:  11    -0.230603425088E+04   -0.11810E-03   -0.17373E-04  4003   0.945E-03    0.593E-02
RMM:  12    -0.230603440552E+04   -0.15463E-03   -0.11070E-04  3797   0.765E-03    0.512E-02
RMM:  13    -0.230603451590E+04   -0.11039E-03   -0.58859E-05  3259   0.649E-03    0.400E-02
RMM:  14    -0.230603465250E+04   -0.13660E-03   -0.84776E-05  3527   0.663E-03    0.162E-02
RMM:  15    -0.230603471176E+04   -0.59263E-04   -0.26078E-05  2943   0.534E-03    0.823E-03
RMM:  16    -0.230603474708E+04   -0.35313E-04   -0.12539E-05  2911   0.351E-03    0.505E-03
RMM:  17    -0.230603476766E+04   -0.20581E-04   -0.54640E-06  2802   0.289E-03    0.348E-03
RMM:  18    -0.230603478069E+04   -0.13031E-04   -0.33170E-06  2572   0.204E-03    0.250E-03
RMM:  19    -0.230603478774E+04   -0.70497E-05   -0.21136E-06  2504   0.174E-03
  23 F= -.23272208E+04 E0= -.23272208E+04  d E =-.501277E-01  mag=     2.0000
       N       E                     dE             d eps       ncg     rms          rms(c)
DAV:   1    -0.230477240872E+04    0.12624E+01   -0.59407E+01  4480   0.733E+00    0.265E+00
RMM:   2    -0.230617572382E+04   -0.14033E+01   -0.14697E+01  6575   0.199E+00    0.284E+00
RMM:   3    -0.230630848394E+04   -0.13276E+00   -0.18154E+00  6396   0.751E-01    0.356E+00
RMM:   4    -0.230622362475E+04    0.84859E-01   -0.18039E-01  6396   0.176E-01    0.152E+00
RMM:   5    -0.230620264675E+04    0.20978E-01   -0.41470E-02  6063   0.836E-02    0.105E+00
RMM:   6    -0.230619801431E+04    0.46324E-02   -0.22041E-02  6012   0.647E-02    0.883E-01
RMM:   7    -0.230618718288E+04    0.10831E-01   -0.21367E-02  6154   0.733E-02    0.327E-01
RMM:   8    -0.230618586194E+04    0.13209E-02   -0.53720E-03  5615   0.376E-02    0.134E-01
RMM:   9    -0.230618573611E+04    0.12583E-03   -0.49058E-04  4735   0.197E-02    0.931E-02
RMM:  10    -0.230618565078E+04    0.85330E-04   -0.29624E-04  4387   0.116E-02    0.578E-02
RMM:  11    -0.230618562229E+04    0.28489E-04   -0.12810E-04  3734   0.940E-03    0.381E-02
RMM:  12    -0.230618562932E+04   -0.70272E-05   -0.12163E-04  3838   0.786E-03    0.204E-02
RMM:  13    -0.230618564208E+04   -0.12768E-04   -0.19979E-05  2945   0.560E-03    0.153E-02
RMM:  14    -0.230618565775E+04   -0.15669E-04   -0.14835E-05  2909   0.351E-03    0.139E-02
RMM:  15    -0.230618567225E+04   -0.14498E-04   -0.13581E-05  2901   0.367E-03    0.109E-02
RMM:  16    -0.230618567941E+04   -0.71568E-05   -0.78264E-06  2881   0.306E-03
  24 F= -.23273710E+04 E0= -.23273710E+04  d E =-.200313E+00  mag=     2.0000
       N       E                     dE             d eps       ncg     rms          rms(c)
DAV:   1    -0.230611479129E+04    0.70881E-01   -0.81219E+00  4480   0.287E+00    0.962E-01
RMM:   2    -0.230625733073E+04   -0.14254E+00   -0.15477E+00  6461   0.701E-01    0.607E-01
RMM:   3    -0.230626820535E+04   -0.10875E-01   -0.15569E-01  6132   0.249E-01    0.510E-01
RMM:   4    -0.230626492041E+04    0.32849E-02   -0.14927E-02  6273   0.592E-02    0.274E-01
RMM:   5    -0.230626504054E+04   -0.12013E-03   -0.30400E-03  5573   0.314E-02    0.324E-01
RMM:   6    -0.230626400144E+04    0.10391E-02   -0.17855E-03  5755   0.245E-02    0.178E-01
RMM:   7    -0.230626427773E+04   -0.27630E-03   -0.97787E-04  5221   0.176E-02    0.241E-01
RMM:   8    -0.230626367460E+04    0.60314E-03   -0.35350E-04  4208   0.117E-02    0.350E-02
RMM:   9    -0.230626365222E+04    0.22378E-04   -0.52083E-05  2960   0.545E-03    0.264E-02
RMM:  10    -0.230626363973E+04    0.12496E-04   -0.31452E-05  2918   0.478E-03    0.880E-03
RMM:  11    -0.230626363831E+04    0.14148E-05   -0.10618E-05  2897   0.410E-03
  25 F= -.23274484E+04 E0= -.23274484E+04  d E =-.774647E-01  mag=     2.0000
       N       E                     dE             d eps       ncg     rms          rms(c)
DAV:   1    -0.230607464953E+04    0.18899E+00   -0.12123E+01  4480   0.353E+00    0.118E+00
RMM:   2    -0.230628798206E+04   -0.21333E+00   -0.23180E+00  6453   0.864E-01    0.729E-01
RMM:   3    -0.230630433278E+04   -0.16351E-01   -0.23351E-01  6113   0.307E-01    0.610E-01
RMM:   4    -0.230629973021E+04    0.46026E-02   -0.22405E-02  6416   0.726E-02    0.346E-01
RMM:   5    -0.230630047490E+04   -0.74470E-03   -0.46055E-03  5641   0.364E-02    0.478E-01
RMM:   6    -0.230629822883E+04    0.22461E-02   -0.27521E-03  5807   0.290E-02    0.199E-01
RMM:   7    -0.230629849801E+04   -0.26917E-03   -0.14806E-03  5483   0.225E-02    0.243E-01
RMM:   8    -0.230629778330E+04    0.71471E-03   -0.51869E-04  4906   0.143E-02    0.488E-02
RMM:   9    -0.230629775047E+04    0.32831E-04   -0.72693E-05  3096   0.614E-03    0.336E-02
RMM:  10    -0.230629773413E+04    0.16343E-04   -0.48699E-05  3083   0.574E-03    0.116E-02
RMM:  11    -0.230629773420E+04   -0.67463E-07   -0.16319E-05  2908   0.474E-03
  26 F= -.23274819E+04 E0= -.23274819E+04  d E =-.110925E+00  mag=     2.0000
       N       E                     dE             d eps       ncg     rms          rms(c)
DAV:   1    -0.230623814214E+04    0.59592E-01   -0.66622E+00  4512   0.251E+00    0.875E-01
RMM:   2    -0.230636067926E+04   -0.12254E+00   -0.13296E+00  6455   0.617E-01    0.599E-01
RMM:   3    -0.230637412485E+04   -0.13446E-01   -0.15694E-01  6180   0.236E-01    0.747E-01
RMM:   4    -0.230636916797E+04    0.49569E-02   -0.15157E-02  6351   0.560E-02    0.384E-01
RMM:   5    -0.230636819555E+04    0.97242E-03   -0.32544E-03  5530   0.252E-02    0.320E-01
RMM:   6    -0.230636782998E+04    0.36557E-03   -0.18972E-03  5633   0.219E-02    0.278E-01
RMM:   7    -0.230636693428E+04    0.89570E-03   -0.16681E-03  5433   0.213E-02    0.905E-02
RMM:   8    -0.230636683261E+04    0.10166E-03   -0.28692E-04  4579   0.109E-02    0.337E-02
RMM:   9    -0.230636681178E+04    0.20829E-04   -0.37803E-05  2985   0.642E-03    0.189E-02
RMM:  10    -0.230636680359E+04    0.81953E-05   -0.28687E-05  2957   0.448E-03
  27 F= -.23275508E+04 E0= -.23275508E+04  d E =-.688711E-01  mag=     2.0000
       N       E                     dE             d eps       ncg     rms          rms(c)
DAV:   1    -0.230599904706E+04    0.36776E+00   -0.21369E+01  4480   0.450E+00    0.157E+00
RMM:   2    -0.230639196298E+04   -0.39292E+00   -0.42943E+00  6455   0.110E+00    0.993E-01
RMM:   3    -0.230643411741E+04   -0.42154E-01   -0.50950E-01  6172   0.422E-01    0.113E+00
RMM:   4    -0.230642228916E+04    0.11828E-01   -0.47307E-02  6548   0.101E-01    0.616E-01
RMM:   5    -0.230642032210E+04    0.19671E-02   -0.97294E-03  5757   0.431E-02    0.586E-01
RMM:   6    -0.230641851876E+04    0.18033E-02   -0.63522E-03  5897   0.394E-02    0.453E-01
RMM:   7    -0.230641656365E+04    0.19551E-02   -0.46257E-03  5701   0.332E-02    0.222E-01
RMM:   8    -0.230641588906E+04    0.67459E-03   -0.10894E-03  5181   0.194E-02    0.654E-02
RMM:   9    -0.230641581457E+04    0.74483E-04   -0.14670E-04  3977   0.106E-02    0.387E-02
RMM:  10    -0.230641577966E+04    0.34910E-04   -0.95709E-05  3521   0.755E-03    0.143E-02
RMM:  11    -0.230641577679E+04    0.28724E-05   -0.20740E-05  2954   0.513E-03
  28 F= -.23275994E+04 E0= -.23275994E+04  d E =-.117508E+00  mag=     2.0000
       N       E                     dE             d eps       ncg     rms          rms(c)
DAV:   1    -0.230635818301E+04    0.57597E-01   -0.68496E+00  4544   0.251E+00    0.946E-01
RMM:   2    -0.230646864968E+04   -0.11047E+00   -0.12165E+00  6213   0.597E-01    0.531E-01
RMM:   3    -0.230648215750E+04   -0.13508E-01   -0.15532E-01  5937   0.258E-01    0.694E-01
RMM:   4    -0.230647749155E+04    0.46659E-02   -0.13159E-02  6320   0.581E-02    0.358E-01
RMM:   5    -0.230647693993E+04    0.55163E-03   -0.44274E-03  5590   0.332E-02    0.331E-01
RMM:   6    -0.230647599857E+04    0.94135E-03   -0.22753E-03  5636   0.244E-02    0.212E-01
RMM:   7    -0.230647569688E+04    0.30170E-03   -0.11695E-03  5289   0.181E-02    0.124E-01
RMM:   8    -0.230647547070E+04    0.22617E-03   -0.31740E-04  3701   0.117E-02    0.385E-02
RMM:   9    -0.230647543645E+04    0.34257E-04   -0.51290E-05  3069   0.532E-03    0.170E-02
RMM:  10    -0.230647542670E+04    0.97500E-05   -0.27581E-05  2948   0.464E-03
  29 F= -.23276600E+04 E0= -.23276600E+04  d E =-.605866E-01  mag=     2.0000
       N       E                     dE             d eps       ncg     rms          rms(c)
DAV:   1    -0.230643183270E+04    0.43604E-01   -0.32219E+00  4544   0.172E+00    0.645E-01
RMM:   2    -0.230648330093E+04   -0.51468E-01   -0.56827E-01  6223   0.410E-01    0.341E-01
RMM:   3    -0.230648902268E+04   -0.57218E-02   -0.71207E-02  5870   0.175E-01    0.408E-01
RMM:   4    -0.230648754347E+04    0.14792E-02   -0.60860E-03  6076   0.392E-02    0.223E-01
RMM:   5    -0.230648692824E+04    0.61523E-03   -0.18086E-03  5017   0.230E-02    0.149E-01
RMM:   6    -0.230648704537E+04   -0.11712E-03   -0.80842E-04  4639   0.173E-02    0.185E-01
RMM:   7    -0.230648667695E+04    0.36841E-03   -0.35322E-04  4520   0.111E-02    0.454E-02
RMM:   8    -0.230648665210E+04    0.24858E-04   -0.88201E-05  2942   0.807E-03    0.325E-02
RMM:   9    -0.230648662961E+04    0.22485E-04   -0.27659E-05  2897   0.416E-03    0.117E-02
RMM:  10    -0.230648662359E+04    0.60166E-05   -0.17812E-05  2933   0.357E-03
  30 F= -.23276719E+04 E0= -.23276719E+04  d E =-.724734E-01  mag=     2.0000
       N       E                     dE             d eps       ncg     rms          rms(c)
DAV:   1    -0.230647248065E+04    0.14149E-01   -0.30705E+00  4512   0.167E+00    0.595E-01
RMM:   2    -0.230652234492E+04   -0.49864E-01   -0.51108E-01  6138   0.397E-01    0.511E-01
RMM:   3    -0.230652865637E+04   -0.63115E-02   -0.61370E-02  6026   0.161E-01    0.671E-01
RMM:   4    -0.230652379307E+04    0.48633E-02   -0.59610E-03  5946   0.394E-02    0.213E-01
RMM:   5    -0.230652362115E+04    0.17192E-03   -0.19785E-03  5364   0.214E-02    0.204E-01
RMM:   6    -0.230652311286E+04    0.50829E-03   -0.14436E-03  5665   0.214E-02    0.100E-01
RMM:   7    -0.230652313862E+04   -0.25757E-04   -0.48457E-04  4506   0.131E-02    0.104E-01
RMM:   8    -0.230652298327E+04    0.15534E-03   -0.14894E-04  3275   0.735E-03    0.222E-02
RMM:   9    -0.230652297003E+04    0.13243E-04   -0.25657E-05  2934   0.470E-03    0.116E-02
RMM:  10    -0.230652296512E+04    0.49108E-05   -0.14586E-05  2928   0.330E-03
  31 F= -.23277097E+04 E0= -.23277097E+04  d E =-.378398E-01  mag=     2.0000
       N       E                     dE             d eps       ncg     rms          rms(c)
DAV:   1    -0.230647258898E+04    0.50381E-01   -0.38522E+00  4496   0.187E+00    0.666E-01
RMM:   2    -0.230653529675E+04   -0.62708E-01   -0.64185E-01  6127   0.446E-01    0.585E-01
RMM:   3    -0.230654317799E+04   -0.78812E-02   -0.77409E-02  6020   0.179E-01    0.757E-01
RMM:   4    -0.230653694871E+04    0.62293E-02   -0.74665E-03  5990   0.441E-02    0.232E-01
RMM:   5    -0.230653675206E+04    0.19665E-03   -0.25011E-03  5508   0.240E-02    0.225E-01
RMM:   6    -0.230653606813E+04    0.68393E-03   -0.17922E-03  5716   0.237E-02    0.943E-02
RMM:   7    -0.230653612986E+04   -0.61730E-04   -0.50424E-04  4779   0.140E-02    0.112E-01
RMM:   8    -0.230653595248E+04    0.17738E-03   -0.18348E-04  3380   0.778E-03    0.270E-02
RMM:   9    -0.230653593216E+04    0.20323E-04   -0.33918E-05  2934   0.497E-03    0.130E-02
RMM:  10    -0.230653592503E+04    0.71239E-05   -0.19702E-05  2938   0.385E-03
  32 F= -.23277244E+04 E0= -.23277244E+04  d E =-.525000E-01  mag=     2.0000
       N       E                     dE             d eps       ncg     rms          rms(c)
DAV:   1    -0.230651817481E+04    0.17757E-01   -0.32233E+00  4512   0.174E+00    0.572E-01
RMM:   2    -0.230656955529E+04   -0.51380E-01   -0.54014E-01  6327   0.396E-01    0.448E-01
RMM:   3    -0.230657564335E+04   -0.60881E-02   -0.57019E-02  6148   0.150E-01    0.602E-01
RMM:   4    -0.230657177292E+04    0.38704E-02   -0.58041E-03  5918   0.379E-02    0.218E-01
RMM:   5    -0.230657173322E+04    0.39705E-04   -0.15852E-03  5206   0.187E-02    0.221E-01
RMM:   6    -0.230657114627E+04    0.58695E-03   -0.12820E-03  5332   0.197E-02    0.959E-02
RMM:   7    -0.230657114920E+04   -0.29368E-05   -0.48156E-04  4613   0.133E-02    0.843E-02
RMM:   8    -0.230657104780E+04    0.10140E-03   -0.14627E-04  3161   0.757E-03    0.259E-02
RMM:   9    -0.230657103177E+04    0.16034E-04   -0.28408E-05  2922   0.455E-03    0.122E-02
RMM:  10    -0.230657102824E+04    0.35310E-05   -0.14411E-05  2906   0.315E-03
  33 F= -.23277608E+04 E0= -.23277608E+04  d E =-.364504E-01  mag=     2.0000
       N       E                     dE             d eps       ncg     rms          rms(c)
DAV:   1    -0.230634150872E+04    0.22952E+00   -0.16028E+01  4480   0.388E+00    0.129E+00
RMM:   2    -0.230659925681E+04   -0.25775E+00   -0.27017E+00  6336   0.882E-01    0.108E+00
RMM:   3    -0.230663069831E+04   -0.31442E-01   -0.30464E-01  6178   0.339E-01    0.142E+00
RMM:   4    -0.230660967664E+04    0.21022E-01   -0.29693E-02  6316   0.846E-02    0.506E-01
RMM:   5    -0.230660893332E+04    0.74332E-03   -0.77100E-03  5834   0.393E-02    0.479E-01
RMM:   6    -0.230660624612E+04    0.26872E-02   -0.61907E-03  5677   0.423E-02    0.224E-01
RMM:   7    -0.230660612827E+04    0.11785E-03   -0.25714E-03  5433   0.281E-02    0.182E-01
RMM:   8    -0.230660571523E+04    0.41304E-03   -0.89882E-04  5019   0.172E-02    0.782E-02
RMM:   9    -0.230660559325E+04    0.12198E-03   -0.14976E-04  3325   0.737E-03    0.320E-02
RMM:  10    -0.230660556615E+04    0.27102E-04   -0.94357E-05  3170   0.656E-03    0.128E-02
RMM:  11    -0.230660556428E+04    0.18742E-05   -0.17337E-05  2918   0.471E-03
  34 F= -.23277982E+04 E0= -.23277982E+04  d E =-.737700E-01  mag=     2.0000
       N       E                     dE             d eps       ncg     rms          rms(c)
DAV:   1    -0.230658972262E+04    0.15844E-01   -0.24548E+00  4672   0.144E+00    0.484E-01
RMM:   2    -0.230663443381E+04   -0.44711E-01   -0.47892E-01  6447   0.339E-01    0.349E-01
RMM:   3    -0.230663894489E+04   -0.45111E-02   -0.49749E-02  6181   0.131E-01    0.413E-01
RMM:   4    -0.230663718831E+04    0.17566E-02   -0.46460E-03  5664   0.310E-02    0.196E-01
RMM:   5    -0.230663722432E+04   -0.36010E-04   -0.11090E-03  4604   0.142E-02    0.210E-01
RMM:   6    -0.230663668842E+04    0.53590E-03   -0.93127E-04  4841   0.155E-02    0.745E-02
RMM:   7    -0.230663665216E+04    0.36263E-04   -0.26281E-04  4364   0.106E-02    0.270E-02
RMM:   8    -0.230663664657E+04    0.55928E-05   -0.35083E-05  2902   0.530E-03
  35 F= -.23278297E+04 E0= -.23278297E+04  d E =-.315984E-01  mag=     2.0000
       N       E                     dE             d eps       ncg     rms          rms(c)
DAV:   1    -0.230625288627E+04    0.38377E+00   -0.22078E+01  4480   0.431E+00    0.148E+00
RMM:   2    -0.230666105011E+04   -0.40816E+00   -0.43466E+00  6453   0.101E+00    0.120E+00
RMM:   3    -0.230670332593E+04   -0.42276E-01   -0.50380E-01  6305   0.405E-01    0.136E+00
RMM:   4    -0.230668447994E+04    0.18846E-01   -0.43794E-02  6383   0.923E-02    0.655E-01
RMM:   5    -0.230668290151E+04    0.15784E-02   -0.94897E-03  5739   0.382E-02    0.571E-01
RMM:   6    -0.230667918155E+04    0.37200E-02   -0.78378E-03  5614   0.419E-02    0.277E-01
RMM:   7    -0.230667851385E+04    0.66770E-03   -0.39084E-03  5497   0.319E-02    0.129E-01
RMM:   8    -0.230667858597E+04   -0.72116E-04   -0.10321E-03  4915   0.196E-02    0.140E-01
RMM:   9    -0.230667829197E+04    0.29400E-03   -0.32406E-04  3841   0.926E-03    0.502E-02
RMM:  10    -0.230667827000E+04    0.21969E-04   -0.12169E-04  3067   0.689E-03    0.195E-02
RMM:  11    -0.230667827320E+04   -0.31982E-05   -0.19088E-05  2910   0.472E-03
  36 F= -.23278727E+04 E0= -.23278727E+04  d E =-.745737E-01  mag=     2.0000
       N       E                     dE             d eps       ncg     rms          rms(c)
DAV:   1    -0.230666766253E+04    0.10607E-01   -0.13623E+00  4704   0.110E+00    0.411E-01
RMM:   2    -0.230669285432E+04   -0.25192E-01   -0.26970E-01  6245   0.259E-01    0.281E-01
RMM:   3    -0.230669528522E+04   -0.24309E-02   -0.29413E-02  5839   0.108E-01    0.331E-01
RMM:   4    -0.230669421204E+04    0.10732E-02   -0.29297E-03  5116   0.248E-02    0.178E-01
RMM:   5    -0.230669405786E+04    0.15417E-03   -0.73211E-04  4658   0.137E-02    0.159E-01
RMM:   6    -0.230669381064E+04    0.24722E-03   -0.60273E-04  4761   0.138E-02    0.833E-02
RMM:   7    -0.230669380760E+04    0.30422E-05   -0.39050E-04  4388   0.121E-02    0.743E-02
RMM:   8    -0.230669372919E+04    0.78413E-04   -0.78974E-05  2942   0.658E-03    0.158E-02
RMM:   9    -0.230669372908E+04    0.11318E-06   -0.14150E-05  2916   0.438E-03
  37 F= -.23278876E+04 E0= -.23278876E+04  d E =-.148951E-01  mag=     2.0000
       N       E                     dE             d eps       ncg     rms          rms(c)
DAV:   1    -0.230667638923E+04    0.17340E-01   -0.11812E+00  4512   0.102E+00    0.382E-01
RMM:   2    -0.230669815475E+04   -0.21766E-01   -0.23370E-01  6186   0.241E-01    0.255E-01
RMM:   3    -0.230670008938E+04   -0.19346E-02   -0.25304E-02  5824   0.102E-01    0.280E-01
RMM:   4    -0.230669934155E+04    0.74783E-03   -0.25045E-03  4949   0.229E-02    0.167E-01
RMM:   5    -0.230669920623E+04    0.13532E-03   -0.60791E-04  4435   0.128E-02    0.149E-01
RMM:   6    -0.230669899020E+04    0.21603E-03   -0.52272E-04  4618   0.130E-02    0.789E-02
RMM:   7    -0.230669898140E+04    0.87986E-05   -0.33302E-04  4215   0.114E-02    0.692E-02
RMM:   8    -0.230669891279E+04    0.68605E-04   -0.72983E-05  2930   0.637E-03    0.150E-02
RMM:   9    -0.230669891194E+04    0.85551E-06   -0.13771E-05  2911   0.435E-03
  38 F= -.23278923E+04 E0= -.23278923E+04  d E =-.195647E-01  mag=     2.0000
       N       E                     dE             d eps       ncg     rms          rms(c)
DAV:   1    -0.230669729941E+04    0.16134E-02   -0.70811E-01  4560   0.833E-01    0.295E-01
RMM:   2    -0.230670927191E+04   -0.11973E-01   -0.12070E-01  6085   0.183E-01    0.271E-01
RMM:   3    -0.230671011763E+04   -0.84571E-03   -0.12635E-02  5628   0.745E-02    0.294E-01
RMM:   4    -0.230670928305E+04    0.83457E-03   -0.15991E-03  4737   0.188E-02    0.134E-01
RMM:   5    -0.230670911170E+04    0.17135E-03   -0.41421E-04  3378   0.109E-02    0.914E-02
RMM:   6    -0.230670905134E+04    0.60365E-04   -0.30341E-04  4226   0.111E-02    0.623E-02
RMM:   7    -0.230670902970E+04    0.21634E-04   -0.15276E-04  3049   0.905E-03    0.419E-02
RMM:   8    -0.230670900794E+04    0.21769E-04   -0.27144E-05  2900   0.514E-03    0.999E-03
RMM:   9    -0.230670900765E+04    0.28979E-06   -0.63377E-06  2881   0.316E-03
  39 F= -.23279020E+04 E0= -.23279020E+04  d E =-.967932E-02  mag=     2.0000
       N       E                     dE             d eps       ncg     rms          rms(c)
DAV:   1    -0.230667358834E+04    0.35420E-01   -0.26318E+00  4480   0.161E+00    0.570E-01
RMM:   2    -0.230671807920E+04   -0.44491E-01   -0.44910E-01  6082   0.356E-01    0.518E-01
RMM:   3    -0.230672123914E+04   -0.31599E-02   -0.47529E-02  5840   0.145E-01    0.564E-01
RMM:   4    -0.230671818096E+04    0.30582E-02   -0.59876E-03  5950   0.360E-02    0.254E-01
RMM:   5    -0.230671756562E+04    0.61534E-03   -0.15617E-03  5280   0.188E-02    0.177E-01
RMM:   6    -0.230671729085E+04    0.27477E-03   -0.10736E-03  5085   0.186E-02    0.110E-01
RMM:   7    -0.230671725215E+04    0.38694E-04   -0.54558E-04  4499   0.145E-02    0.871E-02
RMM:   8    -0.230671714665E+04    0.10550E-03   -0.99524E-05  3081   0.673E-03    0.196E-02
RMM:   9    -0.230671714198E+04    0.46721E-05   -0.18000E-05  2914   0.465E-03
  40 F= -.23279093E+04 E0= -.23279093E+04  d E =-.170337E-01  mag=     2.0000
       N       E                     dE             d eps       ncg     rms          rms(c)
DAV:   1    -0.230671648473E+04    0.66193E-03   -0.67822E-01  4560   0.825E-01    0.255E-01
RMM:   2    -0.230672615652E+04   -0.96718E-02   -0.97016E-02  6188   0.170E-01    0.241E-01
RMM:   3    -0.230672674284E+04   -0.58632E-03   -0.94307E-03  5636   0.642E-02    0.246E-01
RMM:   4    -0.230672614742E+04    0.59542E-03   -0.11812E-03  4286   0.167E-02    0.117E-01
RMM:   5    -0.230672602542E+04    0.12200E-03   -0.31487E-04  3224   0.998E-03    0.849E-02
RMM:   6    -0.230672597467E+04    0.50743E-04   -0.27184E-04  4174   0.108E-02    0.554E-02
RMM:   7    -0.230672594978E+04    0.24897E-04   -0.11585E-04  2989   0.823E-03    0.311E-02
RMM:   8    -0.230672593733E+04    0.12451E-04   -0.17232E-05  2896   0.430E-03    0.974E-03
RMM:   9    -0.230672593650E+04    0.82806E-06   -0.56137E-06  2877   0.267E-03
  41 F= -.23279180E+04 E0= -.23279180E+04  d E =-.868463E-02  mag=     2.0000
       N       E                     dE             d eps       ncg     rms          rms(c)
DAV:   1    -0.230665385332E+04    0.72084E-01   -0.61000E+00  4480   0.248E+00    0.761E-01
RMM:   2    -0.230674055615E+04   -0.86703E-01   -0.87342E-01  6200   0.511E-01    0.712E-01
RMM:   3    -0.230674640090E+04   -0.58447E-02   -0.86346E-02  5993   0.194E-01    0.747E-01
RMM:   4    -0.230674083015E+04    0.55707E-02   -0.10624E-02  6069   0.490E-02    0.340E-01
RMM:   5    -0.230673982213E+04    0.10080E-02   -0.27055E-03  5529   0.251E-02    0.250E-01
RMM:   6    -0.230673924538E+04    0.57675E-03   -0.23513E-03  5103   0.274E-02    0.143E-01
RMM:   7    -0.230673915042E+04    0.94956E-04   -0.91164E-04  4880   0.194E-02    0.104E-01
RMM:   8    -0.230673899148E+04    0.15894E-03   -0.15075E-04  3315   0.747E-03    0.275E-02
RMM:   9    -0.230673897993E+04    0.11553E-04   -0.36747E-05  2923   0.544E-03    0.172E-02
RMM:  10    -0.230673897978E+04    0.15041E-06   -0.21145E-05  2905   0.359E-03
  42 F= -.23279308E+04 E0= -.23279308E+04  d E =-.214369E-01  mag=     2.0000
       N       E                     dE             d eps       ncg     rms          rms(c)
DAV:   1    -0.230672732626E+04    0.11654E-01   -0.16815E+00  4512   0.130E+00    0.415E-01
RMM:   2    -0.230675243334E+04   -0.25107E-01   -0.25539E-01  6305   0.281E-01    0.363E-01
RMM:   3    -0.230675397954E+04   -0.15462E-02   -0.24217E-02  5985   0.103E-01    0.359E-01
RMM:   4    -0.230675250305E+04    0.14765E-02   -0.28105E-03  5413   0.265E-02    0.196E-01
RMM:   5    -0.230675221671E+04    0.28634E-03   -0.70888E-04  4154   0.146E-02    0.134E-01
RMM:   6    -0.230675199465E+04    0.22206E-03   -0.63847E-04  4930   0.154E-02    0.584E-02
RMM:   7    -0.230675199908E+04   -0.44259E-05   -0.26563E-04  3825   0.117E-02    0.565E-02
RMM:   8    -0.230675195347E+04    0.45611E-04   -0.49200E-05  2896   0.514E-03    0.157E-02
RMM:   9    -0.230675194956E+04    0.39060E-05   -0.14375E-05  2913   0.352E-03
  43 F= -.23279437E+04 E0= -.23279437E+04  d E =-.129365E-01  mag=     2.0000
       N       E                     dE             d eps       ncg     rms          rms(c)
DAV:   1    -0.230671887719E+04    0.33076E-01   -0.26420E+00  4480   0.163E+00    0.520E-01
RMM:   2    -0.230675824604E+04   -0.39369E-01   -0.40075E-01  6320   0.351E-01    0.456E-01
RMM:   3    -0.230676074790E+04   -0.25019E-02   -0.38596E-02  6053   0.130E-01    0.451E-01
RMM:   4    -0.230675841046E+04    0.23374E-02   -0.44048E-03  5599   0.332E-02    0.247E-01
RMM:   5    -0.230675796333E+04    0.44713E-03   -0.11317E-03  4752   0.177E-02    0.168E-01
RMM:   6    -0.230675760015E+04    0.36318E-03   -0.10004E-03  5029   0.187E-02    0.710E-02
RMM:   7    -0.230675761036E+04   -0.10216E-04   -0.40874E-04  4299   0.140E-02    0.719E-02
RMM:   8    -0.230675753645E+04    0.73909E-04   -0.80469E-05  2923   0.581E-03    0.200E-02
RMM:   9    -0.230675752816E+04    0.82880E-05   -0.22074E-05  2919   0.415E-03
  44 F= -.23279493E+04 E0= -.23279493E+04  d E =-.184965E-01  mag=     2.0000
       N       E                     dE             d eps       ncg     rms          rms(c)
DAV:   1    -0.230673840531E+04    0.19131E-01   -0.16884E+00  4512   0.124E+00    0.414E-01
RMM:   2    -0.230676916428E+04   -0.30759E-01   -0.30141E-01  6478   0.283E-01    0.477E-01
RMM:   3    -0.230676943960E+04   -0.27532E-03   -0.30381E-02  6188   0.101E-01    0.306E-01
RMM:   4    -0.230676870419E+04    0.73541E-03   -0.35276E-03  5304   0.255E-02    0.234E-01
RMM:   5    -0.230676820036E+04    0.50382E-03   -0.60903E-04  3667   0.129E-02    0.112E-01
RMM:   6    -0.230676803402E+04    0.16635E-03   -0.48436E-04  4587   0.142E-02    0.409E-02
RMM:   7    -0.230676803223E+04    0.17897E-05   -0.11983E-04  3328   0.999E-03    0.187E-02
RMM:   8    -0.230676802864E+04    0.35831E-05   -0.18978E-05  2911   0.430E-03
  45 F= -.23279596E+04 E0= -.23279596E+04  d E =-.103111E-01  mag=     2.0000
       N       E                     dE             d eps       ncg     rms          rms(c)
DAV:   1    -0.230669971862E+04    0.68314E-01   -0.42404E+00  4480   0.196E+00    0.659E-01
RMM:   2    -0.230677698294E+04   -0.77264E-01   -0.75820E-01  6483   0.447E-01    0.756E-01
RMM:   3    -0.230677761179E+04   -0.62885E-03   -0.77671E-02  6315   0.160E-01    0.481E-01
RMM:   4    -0.230677580347E+04    0.18083E-02   -0.88821E-03  5621   0.400E-02    0.372E-01
RMM:   5    -0.230677455288E+04    0.12506E-02   -0.15211E-03  5030   0.192E-02    0.179E-01
RMM:   6    -0.230677412795E+04    0.42493E-03   -0.11692E-03  4764   0.208E-02    0.665E-02
RMM:   7    -0.230677412143E+04    0.65173E-05   -0.31392E-04  4256   0.149E-02    0.335E-02
RMM:   8    -0.230677411748E+04    0.39493E-05   -0.63360E-05  2965   0.539E-03
  46 F= -.23279654E+04 E0= -.23279654E+04  d E =-.161511E-01  mag=     2.0000
       N       E                     dE             d eps       ncg     rms          rms(c)
DAV:   1    -0.230674307467E+04    0.31047E-01   -0.23374E+00  4544   0.140E+00    0.503E-01
RMM:   2    -0.230679080376E+04   -0.47729E-01   -0.46021E-01  6510   0.333E-01    0.658E-01
RMM:   3    -0.230679002724E+04    0.77652E-03   -0.47554E-02  6195   0.119E-01    0.394E-01
RMM:   4    -0.230678899729E+04    0.10300E-02   -0.56162E-03  5660   0.310E-02    0.290E-01
RMM:   5    -0.230678811460E+04    0.88269E-03   -0.95184E-04  4685   0.148E-02    0.132E-01
RMM:   6    -0.230678790323E+04    0.21137E-03   -0.65038E-04  4649   0.152E-02    0.595E-02
RMM:   7    -0.230678793133E+04   -0.28108E-04   -0.25128E-04  3532   0.128E-02    0.525E-02
RMM:   8    -0.230678789776E+04    0.33570E-04   -0.72293E-05  2904   0.547E-03    0.228E-02
RMM:   9    -0.230678788982E+04    0.79407E-05   -0.15488E-05  2900   0.367E-03
  47 F= -.23279787E+04 E0= -.23279787E+04  d E =-.133268E-01  mag=     2.0000
       N       E                     dE             d eps       ncg     rms          rms(c)
DAV:   1    -0.230669185138E+04    0.96046E-01   -0.54358E+00  4480   0.213E+00    0.765E-01
RMM:   2    -0.230680232948E+04   -0.11048E+00   -0.10731E+00  6524   0.512E-01    0.967E-01
RMM:   3    -0.230680071750E+04    0.16120E-02   -0.10989E-01  6312   0.183E-01    0.572E-01
RMM:   4    -0.230679854117E+04    0.21763E-02   -0.12660E-02  5990   0.466E-02    0.442E-01
RMM:   5    -0.230679655490E+04    0.19863E-02   -0.21499E-03  5532   0.215E-02    0.202E-01
RMM:   6    -0.230679603246E+04    0.52244E-03   -0.14543E-03  4863   0.223E-02    0.915E-02
RMM:   7    -0.230679607544E+04   -0.42981E-04   -0.55560E-04  4218   0.181E-02    0.729E-02
RMM:   8    -0.230679601751E+04    0.57929E-04   -0.16471E-04  3422   0.701E-03    0.380E-02
RMM:   9    -0.230679599986E+04    0.17656E-04   -0.33043E-05  2895   0.486E-03    0.152E-02
RMM:  10    -0.230679600341E+04   -0.35565E-05   -0.24619E-05  2894   0.346E-03
  48 F= -.23279863E+04 E0= -.23279863E+04  d E =-.208446E-01  mag=     2.0000
       N       E                     dE             d eps       ncg     rms          rms(c)
DAV:   1    -0.230675289084E+04    0.43109E-01   -0.32913E+00  4512   0.177E+00    0.649E-01
RMM:   2    -0.230681276599E+04   -0.59875E-01   -0.57048E-01  6298   0.411E-01    0.812E-01
RMM:   3    -0.230681208558E+04    0.68041E-03   -0.58215E-02  6094   0.155E-01    0.572E-01
RMM:   4    -0.230680860613E+04    0.34795E-02   -0.67031E-03  5943   0.413E-02    0.266E-01
RMM:   5    -0.230680790924E+04    0.69689E-03   -0.15756E-03  5319   0.210E-02    0.177E-01
RMM:   6    -0.230680747693E+04    0.43232E-03   -0.10917E-03  4883   0.202E-02    0.588E-02
RMM:   7    -0.230680748055E+04   -0.36216E-05   -0.24795E-04  4008   0.142E-02    0.391E-02
RMM:   8    -0.230680747196E+04    0.85918E-05   -0.70982E-05  2967   0.542E-03
  49 F= -.23279974E+04 E0= -.23279974E+04  d E =-.111364E-01  mag=     2.0000
       N       E                     dE             d eps       ncg     rms          rms(c)
DAV:   1    -0.230680578617E+04    0.16944E-02   -0.12001E-01  4992   0.340E-01    0.126E-01
RMM:   2    -0.230680798078E+04   -0.21946E-02   -0.21004E-02  6347   0.792E-02    0.153E-01
RMM:   3    -0.230680796365E+04    0.17133E-04   -0.21120E-03  4076   0.292E-02    0.111E-01
RMM:   4    -0.230680784070E+04    0.12295E-03   -0.25274E-04  2958   0.902E-03    0.562E-02
RMM:   5    -0.230680780991E+04    0.30787E-04   -0.62815E-05  2915   0.568E-03    0.342E-02
RMM:   6    -0.230680779583E+04    0.14077E-04   -0.48694E-05  2971   0.536E-03    0.122E-02
RMM:   7    -0.230680779734E+04   -0.15095E-05   -0.12770E-05  2916   0.441E-03
  50 F= -.23279977E+04 E0= -.23279977E+04  d E =-.114011E-01  mag=     2.0000
       N       E                     dE             d eps       ncg     rms          rms(c)
DAV:   1    -0.230679026249E+04    0.17533E-01   -0.15879E+00  4496   0.125E+00    0.407E-01
RMM:   2    -0.230681833146E+04   -0.28069E-01   -0.26243E-01  6346   0.278E-01    0.589E-01
RMM:   3    -0.230681731416E+04    0.10173E-02   -0.27103E-02  6114   0.103E-01    0.343E-01
RMM:   4    -0.230681589519E+04    0.14190E-02   -0.25702E-03  5234   0.259E-02    0.112E-01
RMM:   5    -0.230681587996E+04    0.15226E-04   -0.65377E-04  4994   0.156E-02    0.129E-01
RMM:   6    -0.230681567262E+04    0.20734E-03   -0.44893E-04  4756   0.125E-02    0.477E-02
RMM:   7    -0.230681564916E+04    0.23460E-04   -0.59130E-05  3018   0.659E-03    0.195E-02
RMM:   8    -0.230681564892E+04    0.24066E-06   -0.23226E-05  2898   0.474E-03
  51 F= -.23280056E+04 E0= -.23280056E+04  d E =-.797036E-02  mag=     2.0000
       N       E                     dE             d eps       ncg     rms          rms(c)
DAV:   1    -0.230679877733E+04    0.16872E-01   -0.11612E+00  4512   0.107E+00    0.350E-01
RMM:   2    -0.230681939663E+04   -0.20619E-01   -0.19216E-01  6337   0.239E-01    0.511E-01
RMM:   3    -0.230681854331E+04    0.85332E-03   -0.19845E-02  6057   0.883E-02    0.292E-01
RMM:   4    -0.230681751432E+04    0.10290E-02   -0.18944E-03  5100   0.223E-02    0.962E-02
RMM:   5    -0.230681752621E+04   -0.11889E-04   -0.48450E-04  4720   0.135E-02    0.119E-01
RMM:   6    -0.230681733933E+04    0.18689E-03   -0.35070E-04  4427   0.115E-02    0.373E-02
RMM:   7    -0.230681732333E+04    0.16001E-04   -0.45769E-05  2995   0.628E-03    0.138E-02
RMM:   8    -0.230681732257E+04    0.75772E-06   -0.14316E-05  2899   0.426E-03
  52 F= -.23280074E+04 E0= -.23280074E+04  d E =-.975377E-02  mag=     2.0000
       N       E                     dE             d eps       ncg     rms          rms(c)
DAV:   1    -0.230680730843E+04    0.10015E-01   -0.10800E+00  4544   0.105E+00    0.317E-01
RMM:   2    -0.230682392655E+04   -0.16618E-01   -0.16363E-01  6318   0.221E-01    0.364E-01
RMM:   3    -0.230682465340E+04   -0.72685E-03   -0.16381E-02  5993   0.805E-02    0.313E-01
RMM:   4    -0.230682348449E+04    0.11689E-02   -0.15596E-03  4992   0.205E-02    0.878E-02
RMM:   5    -0.230682343978E+04    0.44709E-04   -0.41526E-04  4303   0.122E-02    0.859E-02
RMM:   6    -0.230682336104E+04    0.78739E-04   -0.27380E-04  3809   0.101E-02    0.388E-02
RMM:   7    -0.230682334677E+04    0.14266E-04   -0.41035E-05  2928   0.639E-03    0.170E-02
RMM:   8    -0.230682334623E+04    0.54043E-06   -0.15889E-05  2897   0.408E-03
  53 F= -.23280137E+04 E0= -.23280137E+04  d E =-.625072E-02  mag=     2.0000
       N       E                     dE             d eps       ncg     rms          rms(c)
DAV:   1    -0.230676268241E+04    0.60664E-01   -0.43751E+00  4480   0.211E+00    0.639E-01
RMM:   2    -0.230683018588E+04   -0.67503E-01   -0.66462E-01  6320   0.445E-01    0.742E-01
RMM:   3    -0.230683302674E+04   -0.28409E-02   -0.67818E-02  6148   0.162E-01    0.628E-01
RMM:   4    -0.230682829522E+04    0.47315E-02   -0.62892E-03  5672   0.409E-02    0.175E-01
RMM:   5    -0.230682791771E+04    0.37750E-03   -0.17107E-03  5316   0.239E-02    0.125E-01
RMM:   6    -0.230682787351E+04    0.44207E-04   -0.93141E-04  5259   0.171E-02    0.102E-01
RMM:   7    -0.230682772953E+04    0.14398E-03   -0.16971E-04  3411   0.897E-03    0.226E-02
RMM:   8    -0.230682772299E+04    0.65353E-05   -0.31625E-05  2945   0.521E-03
  54 F= -.23280185E+04 E0= -.23280185E+04  d E =-.111122E-01  mag=     2.0000
       N       E                     dE             d eps       ncg     rms          rms(c)
DAV:   1    -0.230680497513E+04    0.22754E-01   -0.18874E+00  4512   0.135E+00    0.419E-01
RMM:   2    -0.230683423802E+04   -0.29263E-01   -0.30749E-01  6271   0.290E-01    0.269E-01
RMM:   3    -0.230683793488E+04   -0.36969E-02   -0.30958E-02  5988   0.108E-01    0.412E-01
RMM:   4    -0.230683609567E+04    0.18392E-02   -0.32786E-03  5493   0.269E-02    0.142E-01
RMM:   5    -0.230683596889E+04    0.12678E-03   -0.67298E-04  4321   0.143E-02    0.111E-01
RMM:   6    -0.230683585325E+04    0.11564E-03   -0.48053E-04  4453   0.125E-02    0.634E-02
RMM:   7    -0.230683580455E+04    0.48700E-04   -0.94998E-05  3190   0.817E-03    0.225E-02
RMM:   8    -0.230683580882E+04   -0.42665E-05   -0.34339E-05  2899   0.566E-03
  55 F= -.23280270E+04 E0= -.23280270E+04  d E =-.847022E-02  mag=     2.0000
       N       E                     dE             d eps       ncg     rms          rms(c)
DAV:   1    -0.230679073555E+04    0.45069E-01   -0.29451E+00  4480   0.169E+00    0.525E-01
RMM:   2    -0.230683643543E+04   -0.45700E-01   -0.48039E-01  6262   0.363E-01    0.338E-01
RMM:   3    -0.230684218758E+04   -0.57521E-02   -0.48737E-02  5983   0.135E-01    0.512E-01
RMM:   4    -0.230683933169E+04    0.28559E-02   -0.51111E-03  5778   0.333E-02    0.182E-01
RMM:   5    -0.230683920073E+04    0.13096E-03   -0.10745E-03  4654   0.168E-02    0.155E-01
RMM:   6    -0.230683892080E+04    0.27993E-03   -0.71466E-04  5010   0.152E-02    0.765E-02
RMM:   7    -0.230683886984E+04    0.50968E-04   -0.19938E-04  4160   0.103E-02    0.442E-02
RMM:   8    -0.230683885432E+04    0.15520E-04   -0.72811E-05  2893   0.628E-03    0.297E-02
RMM:   9    -0.230683884176E+04    0.12558E-04   -0.15622E-05  2888   0.364E-03    0.119E-02
RMM:  10    -0.230683884050E+04    0.12557E-05   -0.92787E-06  2888   0.267E-03
  56 F= -.23280305E+04 E0= -.23280305E+04  d E =-.120126E-01  mag=     2.0000
       N       E                     dE             d eps       ncg     rms          rms(c)
DAV:   1    -0.230679608785E+04    0.42754E-01   -0.24719E+00  4480   0.146E+00    0.507E-01
RMM:   2    -0.230684324188E+04   -0.47154E-01   -0.50330E-01  6422   0.347E-01    0.241E-01
RMM:   3    -0.230684777852E+04   -0.45366E-02   -0.53518E-02  5799   0.135E-01    0.271E-01
RMM:   4    -0.230684752588E+04    0.25263E-03   -0.50529E-03  4791   0.284E-02    0.202E-01
RMM:   5    -0.230684718535E+04    0.34053E-03   -0.73882E-04  4273   0.147E-02    0.117E-01
RMM:   6    -0.230684713353E+04    0.51824E-04   -0.55833E-04  4548   0.124E-02    0.103E-01
RMM:   7    -0.230684700339E+04    0.13013E-03   -0.20475E-04  3755   0.939E-03    0.316E-02
RMM:   8    -0.230684700983E+04   -0.64334E-05   -0.60355E-05  2890   0.635E-03
  57 F= -.23280393E+04 E0= -.23280393E+04  d E =-.880822E-02  mag=     2.0000
       N       E                     dE             d eps       ncg     rms          rms(c)
DAV:   1    -0.230666654549E+04    0.18046E+00   -0.87960E+00  4480   0.276E+00    0.962E-01
RMM:   2    -0.230683522629E+04   -0.16868E+00   -0.18061E+00  6423   0.662E-01    0.446E-01
RMM:   3    -0.230685105215E+04   -0.15826E-01   -0.19789E-01  5827   0.259E-01    0.442E-01
RMM:   4    -0.230685126524E+04   -0.21309E-03   -0.18010E-02  6006   0.533E-02    0.404E-01
RMM:   5    -0.230684980066E+04    0.14646E-02   -0.24554E-03  5155   0.241E-02    0.211E-01
RMM:   6    -0.230684972861E+04    0.72050E-04   -0.20604E-03  5453   0.219E-02    0.205E-01
RMM:   7    -0.230684921217E+04    0.51644E-03   -0.82008E-04  4845   0.165E-02    0.661E-02
RMM:   8    -0.230684923046E+04   -0.18289E-04   -0.21110E-04  3247   0.898E-03    0.712E-02
RMM:   9    -0.230684916212E+04    0.68348E-04   -0.84508E-05  2911   0.657E-03    0.254E-02
RMM:  10    -0.230684915902E+04    0.30918E-05   -0.28903E-05  2905   0.427E-03
  58 F= -.23280428E+04 E0= -.23280428E+04  d E =-.122690E-01  mag=     2.0000
       N       E                     dE             d eps       ncg     rms          rms(c)
DAV:   1    -0.230683500554E+04    0.14157E-01   -0.74621E-01  4576   0.805E-01    0.279E-01
RMM:   2    -0.230684934189E+04   -0.14336E-01   -0.15198E-01  6409   0.190E-01    0.153E-01
RMM:   3    -0.230685084553E+04   -0.15036E-02   -0.15768E-02  5775   0.738E-02    0.203E-01
RMM:   4    -0.230685048209E+04    0.36344E-03   -0.15377E-03  3314   0.166E-02    0.107E-01
RMM:   5    -0.230685042810E+04    0.53994E-04   -0.22896E-04  3071   0.929E-03    0.806E-02
RMM:   6    -0.230685035079E+04    0.77303E-04   -0.16193E-04  3152   0.839E-03    0.412E-02
RMM:   7    -0.230685033278E+04    0.18016E-04   -0.59771E-05  3055   0.684E-03    0.122E-02
RMM:   8    -0.230685033344E+04   -0.66732E-06   -0.12221E-05  2888   0.496E-03
  59 F= -.23280436E+04 E0= -.23280436E+04  d E =-.130474E-01  mag=     2.0000
       N       E                     dE             d eps       ncg     rms          rms(c)
DAV:   1    -0.230680817245E+04    0.42160E-01   -0.20650E+00  4480   0.124E+00    0.465E-01
RMM:   2    -0.230685493123E+04   -0.46759E-01   -0.49360E-01  6590   0.324E-01    0.292E-01
RMM:   3    -0.230686025781E+04   -0.53266E-02   -0.52095E-02  6190   0.125E-01    0.410E-01
RMM:   4    -0.230685872260E+04    0.15352E-02   -0.51048E-03  5127   0.290E-02    0.176E-01
RMM:   5    -0.230685852021E+04    0.20239E-03   -0.69049E-04  3596   0.124E-02    0.128E-01
RMM:   6    -0.230685838209E+04    0.13812E-03   -0.46665E-04  3406   0.115E-02    0.837E-02
RMM:   7    -0.230685830018E+04    0.81903E-04   -0.17966E-04  3842   0.865E-03    0.292E-02
RMM:   8    -0.230685830698E+04   -0.67922E-05   -0.59197E-05  2904   0.617E-03
  60 F= -.23280526E+04 E0= -.23280526E+04  d E =-.900762E-02  mag=     2.0000
       N       E                     dE             d eps       ncg     rms          rms(c)
DAV:   1    -0.230640926308E+04    0.44904E+00   -0.18523E+01  4480   0.371E+00    0.141E+00
RMM:   2    -0.230683514307E+04   -0.42588E+00   -0.45163E+00  6594   0.100E+00    0.847E-01
RMM:   3    -0.230688168216E+04   -0.46539E-01   -0.50132E-01  6286   0.385E-01    0.109E+00
RMM:   4    -0.230687188532E+04    0.97968E-02   -0.45777E-02  6378   0.859E-02    0.593E-01
RMM:   5    -0.230686952405E+04    0.23613E-02   -0.59593E-03  5383   0.327E-02    0.404E-01
RMM:   6    -0.230686831739E+04    0.12067E-02   -0.43963E-03  5457   0.303E-02    0.286E-01
RMM:   7    -0.230686729466E+04    0.10227E-02   -0.20928E-03  5367   0.231E-02    0.810E-02
RMM:   8    -0.230686726322E+04    0.31440E-04   -0.26106E-04  4199   0.134E-02    0.617E-02
RMM:   9    -0.230686724839E+04    0.14829E-04   -0.13688E-04  2928   0.686E-03    0.519E-02
RMM:  10    -0.230686721171E+04    0.36677E-04   -0.64248E-05  2900   0.561E-03    0.137E-02
RMM:  11    -0.230686721347E+04   -0.17561E-05   -0.16024E-05  2911   0.365E-03
  61 F= -.23280648E+04 E0= -.23280648E+04  d E =-.212049E-01  mag=     2.0000
       N       E                     dE             d eps       ncg     rms          rms(c)
DAV:   1    -0.230680822380E+04    0.58988E-01   -0.26707E+00  4544   0.138E+00    0.546E-01
RMM:   2    -0.230687391773E+04   -0.65694E-01   -0.67553E-01  6621   0.378E-01    0.515E-01
RMM:   3    -0.230687990204E+04   -0.59843E-02   -0.72004E-02  6326   0.145E-01    0.534E-01
RMM:   4    -0.230687705229E+04    0.28497E-02   -0.69696E-03  5647   0.351E-02    0.215E-01
RMM:   5    -0.230687678541E+04    0.26688E-03   -0.10878E-03  3501   0.134E-02    0.166E-01
RMM:   6    -0.230687644025E+04    0.34517E-03   -0.66655E-04  4180   0.136E-02    0.747E-02
RMM:   7    -0.230687645106E+04   -0.10811E-04   -0.31115E-04  3877   0.101E-02    0.689E-02
RMM:   8    -0.230687639264E+04    0.58416E-04   -0.10891E-04  2918   0.657E-03    0.227E-02
RMM:   9    -0.230687638665E+04    0.59939E-05   -0.14707E-05  2911   0.369E-03
  62 F= -.23280755E+04 E0= -.23280755E+04  d E =-.107161E-01  mag=     2.0000
       N       E                     dE             d eps       ncg     rms          rms(c)
DAV:   1    -0.230626557058E+04    0.61082E+00   -0.23968E+01  4480   0.416E+00    0.166E+00
RMM:   2    -0.230686649659E+04   -0.60093E+00   -0.62057E+00  6645   0.117E+00    0.150E+00
RMM:   3    -0.230692051337E+04   -0.54017E-01   -0.69722E-01  6351   0.452E-01    0.154E+00
RMM:   4    -0.230689704677E+04    0.23467E-01   -0.63923E-02  6345   0.105E-01    0.707E-01
RMM:   5    -0.230689361697E+04    0.34298E-02   -0.95355E-03  5605   0.372E-02    0.504E-01
RMM:   6    -0.230689057126E+04    0.30457E-02   -0.61459E-03  5359   0.373E-02    0.247E-01
RMM:   7    -0.230689030261E+04    0.26864E-03   -0.30704E-03  5786   0.273E-02    0.176E-01
RMM:   8    -0.230689005931E+04    0.24330E-03   -0.10787E-03  4675   0.162E-02    0.105E-01
RMM:   9    -0.230688989890E+04    0.16041E-03   -0.16680E-04  3067   0.801E-03    0.430E-02
RMM:  10    -0.230688988004E+04    0.18856E-04   -0.96048E-05  2945   0.641E-03    0.120E-02
RMM:  11    -0.230688988207E+04   -0.20269E-05   -0.16114E-05  2919   0.419E-03
  63 F= -.23280938E+04 E0= -.23280938E+04  d E =-.290465E-01  mag=     2.0000
       N       E                     dE             d eps       ncg     rms          rms(c)
DAV:   1    -0.230681666670E+04    0.73213E-01   -0.28547E+00  4592   0.143E+00    0.567E-01
RMM:   2    -0.230688679301E+04   -0.70126E-01   -0.72127E-01  6609   0.394E-01    0.538E-01
RMM:   3    -0.230689312657E+04   -0.63336E-02   -0.77306E-02  6296   0.151E-01    0.550E-01
RMM:   4    -0.230689002256E+04    0.31040E-02   -0.73755E-03  5699   0.367E-02    0.215E-01
RMM:   5    -0.230688979008E+04    0.23248E-03   -0.11564E-03  3559   0.137E-02    0.175E-01
RMM:   6    -0.230688942282E+04    0.36726E-03   -0.70984E-04  4205   0.137E-02    0.823E-02
RMM:   7    -0.230688943936E+04   -0.16536E-04   -0.37454E-04  4037   0.107E-02    0.790E-02
RMM:   8    -0.230688935683E+04    0.82525E-04   -0.11967E-04  2930   0.674E-03    0.218E-02
RMM:   9    -0.230688935122E+04    0.56152E-05   -0.16974E-05  2928   0.397E-03
  64 F= -.23280950E+04 E0= -.23280950E+04  d E =-.302468E-01  mag=     2.0000
       N       E                     dE             d eps       ncg     rms          rms(c)
DAV:   1    -0.230676932372E+04    0.12003E+00   -0.49476E+00  4480   0.186E+00    0.760E-01
RMM:   2    -0.230689576191E+04   -0.12644E+00   -0.12871E+00  6623   0.515E-01    0.793E-01
RMM:   3    -0.230690487759E+04   -0.91157E-02   -0.13892E-01  6344   0.201E-01    0.702E-01
RMM:   4    -0.230689999016E+04    0.48874E-02   -0.13252E-02  5937   0.482E-02    0.305E-01
RMM:   5    -0.230689936097E+04    0.62919E-03   -0.18798E-03  4192   0.173E-02    0.225E-01
RMM:   6    -0.230689873509E+04    0.62588E-03   -0.12288E-03  4770   0.176E-02    0.109E-01
RMM:   7    -0.230689878054E+04   -0.45456E-04   -0.71255E-04  4637   0.142E-02    0.109E-01
RMM:   8    -0.230689861982E+04    0.16072E-03   -0.22117E-04  3083   0.799E-03    0.278E-02
RMM:   9    -0.230689860850E+04    0.11317E-04   -0.28677E-05  2937   0.478E-03    0.163E-02
RMM:  10    -0.230689860604E+04    0.24570E-05   -0.14369E-05  2895   0.306E-03
  65 F= -.23281066E+04 E0= -.23281066E+04  d E =-.115340E-01  mag=     2.0000
       N       E                     dE             d eps       ncg     rms          rms(c)
DAV:   1    -0.230622336245E+04    0.67525E+00   -0.25391E+01  4480   0.423E+00    0.175E+00
RMM:   2    -0.230689051674E+04   -0.66715E+00   -0.68025E+00  6624   0.119E+00    0.179E+00
RMM:   3    -0.230693389662E+04   -0.43380E-01   -0.75255E-01  6342   0.467E-01    0.154E+00
RMM:   4    -0.230691048100E+04    0.23416E-01   -0.68205E-02  6299   0.109E-01    0.743E-01
RMM:   5    -0.230690654192E+04    0.39391E-02   -0.95575E-03  5548   0.375E-02    0.520E-01
RMM:   6    -0.230690324541E+04    0.32965E-02   -0.63335E-03  5370   0.381E-02    0.254E-01
RMM:   7    -0.230690333173E+04   -0.86321E-04   -0.38431E-03  5837   0.302E-02    0.239E-01
RMM:   8    -0.230690262484E+04    0.70689E-03   -0.12522E-03  5012   0.166E-02    0.782E-02
RMM:   9    -0.230690252988E+04    0.94958E-04   -0.14555E-04  3172   0.724E-03    0.414E-02
RMM:  10    -0.230690250959E+04    0.20288E-04   -0.77859E-05  2926   0.629E-03    0.118E-02
RMM:  11    -0.230690250921E+04    0.38571E-06   -0.16924E-05  2928   0.420E-03
  66 F= -.23281158E+04 E0= -.23281158E+04  d E =-.207875E-01  mag=     2.0000
       N       E                     dE             d eps       ncg     rms          rms(c)
DAV:   1    -0.230681875118E+04    0.83758E-01   -0.34928E+00  4608   0.156E+00    0.634E-01
RMM:   2    -0.230690628274E+04   -0.87532E-01   -0.90346E-01  6537   0.423E-01    0.570E-01
RMM:   3    -0.230691504563E+04   -0.87629E-02   -0.98161E-02  6253   0.172E-01    0.619E-01
RMM:   4    -0.230691094634E+04    0.40993E-02   -0.92022E-03  5821   0.410E-02    0.224E-01
RMM:   5    -0.230691075816E+04    0.18819E-03   -0.12767E-03  4067   0.149E-02    0.200E-01
RMM:   6    -0.230691026674E+04    0.49141E-03   -0.74789E-04  4250   0.144E-02    0.850E-02
RMM:   7    -0.230691021784E+04    0.48898E-04   -0.34757E-04  4387   0.111E-02    0.450E-02
RMM:   8    -0.230691021803E+04   -0.18286E-06   -0.11319E-04  2928   0.744E-03    0.421E-02
RMM:   9    -0.230691019346E+04    0.24570E-04   -0.24745E-05  2882   0.436E-03    0.151E-02
RMM:  10    -0.230691019133E+04    0.21280E-05   -0.12241E-05  2893   0.271E-03
  67 F= -.23281251E+04 E0= -.23281251E+04  d E =-.931564E-02  mag=     2.0000
       N       E                     dE             d eps       ncg     rms          rms(c)
DAV:   1    -0.230680729491E+04    0.10290E+00   -0.40081E+00  4512   0.167E+00    0.681E-01
RMM:   2    -0.230690824155E+04   -0.10095E+00   -0.10413E+00  6534   0.457E-01    0.616E-01
RMM:   3    -0.230691829650E+04   -0.10055E-01   -0.11415E-01  6237   0.188E-01    0.663E-01
RMM:   4    -0.230691356040E+04    0.47361E-02   -0.10538E-02  5885   0.441E-02    0.240E-01
RMM:   5    -0.230691334216E+04    0.21823E-03   -0.14517E-03  4297   0.159E-02    0.214E-01
RMM:   6    -0.230691277746E+04    0.56470E-03   -0.84292E-04  4330   0.152E-02    0.915E-02
RMM:   7    -0.230691271771E+04    0.59754E-04   -0.40359E-04  4553   0.119E-02    0.481E-02
RMM:   8    -0.230691271841E+04   -0.70041E-06   -0.13099E-04  2941   0.774E-03    0.457E-02
RMM:   9    -0.230691268882E+04    0.29587E-04   -0.29269E-05  2884   0.474E-03    0.163E-02
RMM:  10    -0.230691268577E+04    0.30512E-05   -0.14478E-05  2896   0.292E-03
  68 F= -.23281294E+04 E0= -.23281294E+04  d E =-.135986E-01  mag=     2.0000
       N       E                     dE             d eps       ncg     rms          rms(c)
DAV:   1    -0.230689244405E+04    0.20245E-01   -0.12997E+00  4544   0.112E+00    0.386E-01
RMM:   2    -0.230691858383E+04   -0.26140E-01   -0.27594E-01  6281   0.264E-01    0.228E-01
RMM:   3    -0.230692139043E+04   -0.28066E-02   -0.30496E-02  5962   0.112E-01    0.290E-01
RMM:   4    -0.230692056639E+04    0.82403E-03   -0.28163E-03  5158   0.244E-02    0.142E-01
RMM:   5    -0.230692042947E+04    0.13693E-03   -0.46372E-04  3449   0.116E-02    0.105E-01
RMM:   6    -0.230692028102E+04    0.14845E-03   -0.33499E-04  4276   0.113E-02    0.437E-02
RMM:   7    -0.230692026489E+04    0.16127E-04   -0.10698E-04  3586   0.803E-03    0.271E-02
RMM:   8    -0.230692026433E+04    0.55981E-06   -0.36511E-05  2896   0.603E-03
  69 F= -.23281376E+04 E0= -.23281376E+04  d E =-.819431E-02  mag=     2.0000
       N       E                     dE             d eps       ncg     rms          rms(c)
DAV:   1    -0.230687134881E+04    0.48916E-01   -0.24221E+00  4512   0.153E+00    0.529E-01
RMM:   2    -0.230692038621E+04   -0.49037E-01   -0.51795E-01  6275   0.363E-01    0.316E-01
[...]
DAV:   1    -0.230703207862E+04    0.21622E-03   -0.14625E-02  4480   0.129E-01    0.417E-02
RMM:   2    -0.230703231701E+04   -0.23838E-03   -0.22934E-03  6145   0.291E-02    0.454E-02
RMM:   3    -0.230703232113E+04   -0.41197E-05   -0.23395E-04  2919   0.111E-02    0.340E-02
RMM:   4    -0.230703230607E+04    0.15061E-04   -0.26009E-05  2929   0.365E-03    0.162E-02
RMM:   5    -0.230703230482E+04    0.12417E-05   -0.67605E-06  2780   0.208E-03
 193 F= -.23282729E+04 E0= -.23282729E+04  d E =-.500436E-04  mag=     2.0000
       N       E                     dE             d eps       ncg     rms          rms(c)
DAV:   1    -0.230703227080E+04    0.35264E-04   -0.13827E-03  5112   0.398E-02    0.145E-02
RMM:   2    -0.230703229664E+04   -0.25840E-04   -0.22066E-04  3632   0.935E-03    0.213E-02
RMM:   3    -0.230703229256E+04    0.40819E-05   -0.27490E-05  2748   0.542E-03
 194 F= -.23282729E+04 E0= -.23282729E+04  d E =-.491513E-04  mag=     2.0000
       N       E                     dE             d eps       ncg     rms          rms(c)
DAV:   1    -0.230703206358E+04    0.23307E-03   -0.14875E-02  4512   0.129E-01    0.429E-02
RMM:   2    -0.230703231003E+04   -0.24646E-03   -0.24441E-03  6109   0.295E-02    0.404E-02
RMM:   3    -0.230703232409E+04   -0.14055E-04   -0.24865E-04  2917   0.118E-02    0.361E-02
RMM:   4    -0.230703230594E+04    0.18145E-04   -0.26684E-05  2924   0.382E-03    0.161E-02
RMM:   5    -0.230703230513E+04    0.81075E-06   -0.76675E-06  2825   0.220E-03
 195 F= -.23282730E+04 E0= -.23282730E+04  d E =-.481083E-04  mag=     2.0000
       N       E                     dE             d eps       ncg     rms          rms(c)
DAV:   1    -0.230703229883E+04    0.71135E-05   -0.58712E-05  4792   0.851E-03    0.702E-03
RMM:   2    -0.230703230328E+04   -0.44529E-05   -0.16258E-05  2570   0.312E-03
 196 F= -.23282730E+04 E0= -.23282730E+04  d E =-.484883E-04  mag=     2.0000
       N       E                     dE             d eps       ncg     rms          rms(c)
DAV:   1    -0.230703208756E+04    0.21127E-03   -0.12240E-02  4512   0.114E-01    0.384E-02
RMM:   2    -0.230703230847E+04   -0.22091E-03   -0.21759E-03  6066   0.266E-02    0.396E-02
RMM:   3    -0.230703231946E+04   -0.10992E-04   -0.21768E-04  2919   0.107E-02    0.333E-02
RMM:   4    -0.230703230411E+04    0.15350E-04   -0.22243E-05  2921   0.336E-03    0.127E-02
RMM:   5    -0.230703230435E+04   -0.24156E-06   -0.63554E-06  2782   0.198E-03
 197 F= -.23282730E+04 E0= -.23282730E+04  d E =-.399044E-04  mag=     2.0000
       N       E                     dE             d eps       ncg     rms          rms(c)
DAV:   1    -0.230703229325E+04    0.10858E-04   -0.18936E-04  5232   0.145E-02    0.645E-03
RMM:   2    -0.230703229793E+04   -0.46799E-05   -0.37567E-05  2662   0.372E-03
 198 F= -.23282730E+04 E0= -.23282730E+04  d E =-.384595E-04  mag=     2.0000
       N       E                     dE             d eps       ncg     rms          rms(c)
DAV:   1    -0.230703212573E+04    0.16752E-03   -0.92490E-03  4512   0.101E-01    0.340E-02
RMM:   2    -0.230703228891E+04   -0.16318E-03   -0.16148E-03  6028   0.238E-02    0.341E-02
RMM:   3    -0.230703229781E+04   -0.88936E-05   -0.16789E-04  2901   0.988E-03    0.295E-02
RMM:   4    -0.230703228609E+04    0.11714E-04   -0.17169E-05  2914   0.310E-03    0.127E-02
RMM:   5    -0.230703228603E+04    0.58091E-07   -0.52794E-06  2751   0.184E-03
 199 F= -.23282730E+04 E0= -.23282730E+04  d E =-.382451E-04  mag=     2.0000
       N       E                     dE             d eps       ncg     rms          rms(c)
DAV:   1    -0.230703228255E+04    0.35457E-05   -0.99754E-06  3768   0.389E-03    0.297E-03
RMM:   2    -0.230703228285E+04   -0.30495E-06   -0.14971E-06  2172   0.145E-03
 200 F= -.23282730E+04 E0= -.23282730E+04  d E =-.358209E-04  mag=     2.0000
       N       E                     dE             d eps       ncg     rms          rms(c)
DAV:   1    -0.230703213623E+04    0.14631E-03   -0.73823E-03  4512   0.903E-02    0.315E-02
RMM:   2    -0.230703226293E+04   -0.12670E-03   -0.12538E-03  5947   0.209E-02    0.299E-02
RMM:   3    -0.230703226991E+04   -0.69846E-05   -0.12595E-04  2894   0.846E-03    0.265E-02
RMM:   4    -0.230703225989E+04    0.10026E-04   -0.13429E-05  2878   0.278E-03    0.109E-02
RMM:   5    -0.230703225996E+04   -0.67434E-07   -0.39950E-06  2560   0.160E-03
 201 F= -.23282731E+04 E0= -.23282731E+04  d E =-.330862E-04  mag=     2.0000
       N       E                     dE             d eps       ncg     rms          rms(c)
DAV:   1    -0.230703225017E+04    0.97198E-05   -0.80686E-05  5264   0.966E-03    0.434E-03
RMM:   2    -0.230703225196E+04   -0.17918E-05   -0.15531E-05  2489   0.250E-03
 202 F= -.23282731E+04 E0= -.23282731E+04  d E =-.311379E-04  mag=     2.0000
       N       E                     dE             d eps       ncg     rms          rms(c)
DAV:   1    -0.230703215526E+04    0.94906E-04   -0.54011E-03  4512   0.768E-02    0.267E-02
RMM:   2    -0.230703225801E+04   -0.10275E-03   -0.97379E-04  5817   0.184E-02    0.314E-02
RMM:   3    -0.230703225630E+04    0.17129E-05   -0.10250E-04  2885   0.781E-03    0.190E-02
RMM:   4    -0.230703225161E+04    0.46881E-05   -0.10245E-05  2857   0.244E-03
 203 F= -.23282731E+04 E0= -.23282731E+04  d E =-.266649E-04  mag=     2.0000
       N       E                     dE             d eps       ncg     rms          rms(c)
DAV:   1    -0.230703224964E+04    0.66559E-05   -0.20460E-05  4040   0.455E-03    0.898E-03
RMM:   2    -0.230703225722E+04   -0.75791E-05   -0.12031E-05  2417   0.263E-03
 204 F= -.23282731E+04 E0= -.23282731E+04  d E =-.335279E-04  mag=     2.0000
       N       E                     dE             d eps       ncg     rms          rms(c)
DAV:   1    -0.230703216650E+04    0.83143E-04   -0.51104E-03  4512   0.752E-02    0.278E-02
RMM:   2    -0.230703227421E+04   -0.10771E-03   -0.95834E-04  5864   0.185E-02    0.393E-02
RMM:   3    -0.230703226043E+04    0.13784E-04   -0.98317E-05  2891   0.759E-03    0.159E-02
RMM:   4    -0.230703225781E+04    0.26169E-05   -0.10428E-05  2869   0.241E-03
 205 F= -.23282731E+04 E0= -.23282731E+04  d E =-.164463E-04  mag=     2.0000
       N       E                     dE             d eps       ncg     rms          rms(c)
DAV:   1    -0.230703225650E+04    0.39319E-05   -0.12593E-05  3592   0.293E-03    0.832E-03
RMM:   2    -0.230703226157E+04   -0.50734E-05   -0.65583E-06  1994   0.174E-03
 206 F= -.23282731E+04 E0= -.23282731E+04  d E =-.202874E-04  mag=     2.0000
       N       E                     dE             d eps       ncg     rms          rms(c)
DAV:   1    -0.230703217559E+04    0.80909E-04   -0.41666E-03  4512   0.686E-02    0.242E-02
RMM:   2    -0.230703225889E+04   -0.83305E-04   -0.75865E-04  5718   0.168E-02    0.326E-02
RMM:   3    -0.230703225054E+04    0.83527E-05   -0.77291E-05  2890   0.680E-03
 207 F= -.23282731E+04 E0= -.23282731E+04  d E =-.110284E-04  mag=     2.0000
       N       E                     dE             d eps       ncg     rms          rms(c)
DAV:   1    -0.230703225130E+04    0.75955E-05   -0.15783E-04  4832   0.134E-02    0.992E-03
RMM:   2    -0.230703226008E+04   -0.87795E-05   -0.31025E-05  2692   0.365E-03
 208 F= -.23282731E+04 E0= -.23282731E+04  d E =-.166248E-04  mag=     2.0000
       N       E                     dE             d eps       ncg     rms          rms(c)
DAV:   1    -0.230703218156E+04    0.69733E-04   -0.31994E-03  4480   0.598E-02    0.203E-02
RMM:   2    -0.230703224086E+04   -0.59297E-04   -0.56569E-04  4933   0.151E-02    0.230E-02
RMM:   3    -0.230703224043E+04    0.42946E-06   -0.58736E-05  2871   0.669E-03
 209 F= -.23282731E+04 E0= -.23282731E+04  d E =-.742696E-05  mag=     2.0000
       N       E                     dE             d eps       ncg     rms          rms(c)
DAV:   1    -0.230703223838E+04    0.24847E-05   -0.19143E-05  3848   0.458E-03    0.704E-03
RMM:   2    -0.230703224117E+04   -0.27939E-05   -0.64264E-06  2289   0.240E-03
 210 F= -.23282731E+04 E0= -.23282731E+04  d E =-.727195E-05  mag=     2.0000
       N       E                     dE             d eps       ncg     rms          rms(c)
DAV:   1    -0.230703219749E+04    0.40882E-04   -0.18690E-03  4448   0.455E-02    0.157E-02
RMM:   2    -0.230703223452E+04   -0.37021E-04   -0.33933E-04  3903   0.114E-02    0.214E-02
RMM:   3    -0.230703223281E+04    0.17007E-05   -0.39728E-05  2587   0.640E-03
 211 F= -.23282732E+04 E0= -.23282732E+04  d E =-.169021E-04  mag=     2.0000
       N       E                     dE             d eps       ncg     rms          rms(c)
DAV:   1    -0.230703222806E+04    0.64595E-05   -0.28638E-05  3832   0.563E-03    0.516E-03
RMM:   2    -0.230703222893E+04   -0.87256E-06   -0.67797E-06  2377   0.288E-03
 212 F= -.23282732E+04 E0= -.23282732E+04  d E =-.158166E-04  mag=     2.0000
       N       E                     dE             d eps       ncg     rms          rms(c)
DAV:   1    -0.230703220404E+04    0.24020E-04   -0.11645E-03  4416   0.358E-02    0.133E-02
RMM:   2    -0.230703222760E+04   -0.23567E-04   -0.21333E-04  3491   0.906E-03    0.186E-02
RMM:   3    -0.230703222598E+04    0.16235E-05   -0.24608E-05  2409   0.534E-03
 213 F= -.23282732E+04 E0= -.23282732E+04  d E =-.110182E-04  mag=     2.0000
       N       E                     dE             d eps       ncg     rms          rms(c)
DAV:   1    -0.230703222276E+04    0.48385E-05   -0.19216E-05  3256   0.465E-03    0.395E-03
RMM:   2    -0.230703222298E+04   -0.21211E-06   -0.40977E-06  2322   0.230E-03
 214 F= -.23282732E+04 E0= -.23282732E+04  d E =-.966708E-05  mag=     2.0000
       N       E                     dE             d eps       ncg     rms          rms(c)
DAV:   1    -0.230703220506E+04    0.17706E-04   -0.10134E-03  4400   0.323E-02    0.123E-02
RMM:   2    -0.230703222750E+04   -0.22438E-04   -0.20799E-04  3407   0.842E-03    0.167E-02
RMM:   3    -0.230703222664E+04    0.85484E-06   -0.24344E-05  2424   0.509E-03
 215 F= -.23282732E+04 E0= -.23282732E+04  d E =-.939090E-05  mag=     2.0000
       N       E                     dE             d eps       ncg     rms          rms(c)
DAV:   1    -0.230703222580E+04    0.17008E-05   -0.80049E-06  2880   0.279E-03    0.538E-03
RMM:   2    -0.230703222738E+04   -0.15872E-05   -0.38882E-06  2121   0.164E-03
 216 F= -.23282732E+04 E0= -.23282732E+04  d E =-.100124E-04  mag=     2.0000
       N       E                     dE             d eps       ncg     rms          rms(c)
DAV:   1    -0.230703221354E+04    0.12258E-04   -0.69434E-04  4336   0.271E-02    0.942E-03
RMM:   2    -0.230703222633E+04   -0.12790E-04   -0.13560E-04  3187   0.709E-03    0.552E-03
RMM:   3    -0.230703222745E+04   -0.11231E-05   -0.15430E-05  2315   0.451E-03
 217 F= -.23282732E+04 E0= -.23282732E+04  d E =-.639409E-05  mag=     2.0000
       N       E                     dE             d eps       ncg     rms          rms(c)
DAV:   1    -0.230703222669E+04   -0.36729E-06   -0.68041E-06  2856   0.284E-03    0.380E-03
RMM:   2    -0.230703222750E+04   -0.80274E-06   -0.24359E-06  2211   0.164E-03
 218 F= -.23282732E+04 E0= -.23282732E+04  d E =-.694118E-05  mag=     2.0000
       N       E                     dE             d eps       ncg     rms          rms(c)
DAV:   1    -0.230703221066E+04    0.16033E-04   -0.64709E-04  4320   0.258E-02    0.921E-03
RMM:   2    -0.230703222406E+04   -0.13402E-04   -0.13286E-04  3165   0.671E-03    0.991E-03
RMM:   3    -0.230703222464E+04   -0.57890E-06   -0.15214E-05  2351   0.425E-03
 219 F= -.23282732E+04 E0= -.23282732E+04  d E =-.445910E-05  mag=     2.0000
       N       E                     dE             d eps       ncg     rms          rms(c)
DAV:   1    -0.230703222382E+04    0.24526E-06   -0.48239E-06  2632   0.205E-03    0.443E-03
RMM:   2    -0.230703222539E+04   -0.15666E-05   -0.23313E-06  1794   0.124E-03
 220 F= -.23282732E+04 E0= -.23282732E+04  d E =-.533398E-05  mag=     2.0000
       N       E                     dE             d eps       ncg     rms          rms(c)
DAV:   1    -0.230703220838E+04    0.15439E-04   -0.60705E-04  4264   0.250E-02    0.866E-03
RMM:   2    -0.230703222062E+04   -0.12242E-04   -0.12413E-04  3144   0.658E-03    0.765E-03
RMM:   3    -0.230703222158E+04   -0.95565E-06   -0.14265E-05  2307   0.419E-03
 221 F= -.23282732E+04 E0= -.23282732E+04  d E =-.667630E-05  mag=     2.0000
       N       E                     dE             d eps       ncg     rms          rms(c)
DAV:   1    -0.230703221979E+04    0.83365E-06   -0.94245E-06  2632   0.315E-03    0.336E-03
RMM:   2    -0.230703222020E+04   -0.41444E-06   -0.22970E-06  2177   0.162E-03
 222 F= -.23282732E+04 E0= -.23282732E+04  d E =-.637912E-05  mag=     2.0000
       N       E                     dE             d eps       ncg     rms          rms(c)
DAV:   1    -0.230703220839E+04    0.11398E-04   -0.59959E-04  4288   0.241E-02    0.878E-03
RMM:   2    -0.230703222177E+04   -0.13380E-04   -0.13182E-04  3158   0.657E-03    0.917E-03
RMM:   3    -0.230703222223E+04   -0.46263E-06   -0.15849E-05  2330   0.428E-03
 223 F= -.23282732E+04 E0= -.23282732E+04  d E =-.854348E-05  mag=     2.0000
       N       E                     dE             d eps       ncg     rms          rms(c)
DAV:   1    -0.230703221886E+04    0.29051E-05   -0.54419E-05  3736   0.740E-03    0.380E-03
RMM:   2    -0.230703222031E+04   -0.14502E-05   -0.14170E-05  2342   0.270E-03
 224 F= -.23282732E+04 E0= -.23282732E+04  d E =-.859486E-05  mag=     2.0000
       N       E                     dE             d eps       ncg     rms          rms(c)
DAV:   1    -0.230703220687E+04    0.11995E-04   -0.62591E-04  4256   0.236E-02    0.947E-03
RMM:   2    -0.230703222554E+04   -0.18671E-04   -0.15522E-04  3222   0.700E-03    0.185E-02
RMM:   3    -0.230703222221E+04    0.33302E-05   -0.16875E-05  2304   0.432E-03
 225 F= -.23282732E+04 E0= -.23282732E+04  d E =-.810029E-05  mag=     2.0000
       N       E                     dE             d eps       ncg     rms          rms(c)
DAV:   1    -0.230703221901E+04    0.65331E-05   -0.77499E-05  3720   0.834E-03    0.581E-03
RMM:   2    -0.230703222322E+04   -0.42087E-05   -0.22239E-05  2431   0.298E-03
 226 F= -.23282732E+04 E0= -.23282732E+04  d E =-.112615E-04  mag=     2.0000
       N       E                     dE             d eps       ncg     rms          rms(c)
DAV:   1    -0.230703221036E+04    0.86488E-05   -0.45362E-04  4248   0.206E-02    0.739E-03
RMM:   2    -0.230703222071E+04   -0.10351E-04   -0.10283E-04  2983   0.593E-03    0.760E-03
RMM:   3    -0.230703222128E+04   -0.56892E-06   -0.12994E-05  2275   0.402E-03
 227 F= -.23282732E+04 E0= -.23282732E+04  d E =-.647395E-05  mag=     2.0000
       N       E                     dE             d eps       ncg     rms          rms(c)
DAV:   1    -0.230703221411E+04    0.66019E-05   -0.13870E-04  4512   0.114E-02    0.497E-03
RMM:   2    -0.230703221740E+04   -0.32904E-05   -0.32692E-05  2470   0.335E-03
 228 F= -.23282732E+04 E0= -.23282732E+04  d E =-.731110E-05  mag=     2.0000
       N       E                     dE             d eps       ncg     rms          rms(c)
DAV:   1    -0.230703220040E+04    0.13710E-04   -0.51157E-04  4216   0.219E-02    0.854E-03
RMM:   2    -0.230703221319E+04   -0.12789E-04   -0.11621E-04  3072   0.635E-03    0.122E-02
RMM:   3    -0.230703221227E+04    0.91910E-06   -0.14662E-05  2307   0.422E-03
 229 F= -.23282732E+04 E0= -.23282732E+04  d E =-.901115E-05  mag=     2.0000
       N       E                     dE             d eps       ncg     rms          rms(c)
DAV:   1    -0.230703219699E+04    0.16200E-04   -0.29597E-04  4592   0.166E-02    0.685E-03
RMM:   2    -0.230703220453E+04   -0.75458E-05   -0.67315E-05  2820   0.470E-03
 230 F= -.23282732E+04 E0= -.23282732E+04  d E =-.121246E-04  mag=     2.0000
       N       E                     dE             d eps       ncg     rms          rms(c)
DAV:   1    -0.230703218791E+04    0.90802E-05   -0.42228E-04  4224   0.199E-02    0.854E-03
RMM:   2    -0.230703220161E+04   -0.13707E-04   -0.10190E-04  3021   0.606E-03    0.196E-02
RMM:   3    -0.230703219759E+04    0.40258E-05   -0.11471E-05  2317   0.391E-03
 231 F= -.23282732E+04 E0= -.23282732E+04  d E =-.645779E-05  mag=     2.0000
       N       E                     dE             d eps       ncg     rms          rms(c)
DAV:   1    -0.230703219354E+04    0.80786E-05   -0.32598E-05  3096   0.571E-03    0.418E-03
RMM:   2    -0.230703219503E+04   -0.14969E-05   -0.89868E-06  2346   0.254E-03
 232 F= -.23282732E+04 E0= -.23282732E+04  d E =-.765949E-05  mag=     2.0000
       N       E                     dE             d eps       ncg     rms          rms(c)
DAV:   1    -0.230703218587E+04    0.76644E-05   -0.38130E-04  4208   0.195E-02    0.710E-03
RMM:   2    -0.230703219357E+04   -0.77024E-05   -0.76533E-05  2743   0.540E-03
 233 F= -.23282732E+04 E0= -.23282732E+04  d E =-.771943E-05  mag=     2.0000
       N       E                     dE             d eps       ncg     rms          rms(c)
DAV:   1    -0.230703218282E+04    0.30471E-05   -0.28926E-04  4392   0.171E-02    0.995E-03
RMM:   2    -0.230703219855E+04   -0.15731E-04   -0.75518E-05  2873   0.535E-03    0.287E-02
RMM:   3    -0.230703218850E+04    0.10051E-04   -0.96568E-06  2333   0.324E-03    0.417E-03
RMM:   4    -0.230703218841E+04    0.97905E-07   -0.10202E-06  1498   0.107E-03
 234 F= -.23282732E+04 E0= -.23282732E+04  d E =-.103453E-04  mag=     2.0000
       N       E                     dE             d eps       ncg     rms          rms(c)
DAV:   1    -0.230703218333E+04    0.51747E-05   -0.23627E-04  4272   0.145E-02    0.566E-03
RMM:   2    -0.230703218891E+04   -0.55847E-05   -0.53472E-05  2627   0.404E-03
 235 F= -.23282733E+04 E0= -.23282733E+04  d E =-.605368E-05  mag=     2.0000
       N       E                     dE             d eps       ncg     rms          rms(c)
DAV:   1    -0.230703218629E+04   -0.29599E-05   -0.60498E-05  3168   0.765E-03    0.568E-03
RMM:   2    -0.230703219133E+04   -0.50407E-05   -0.19832E-05  2401   0.397E-03
 236 F= -.23282733E+04 E0= -.23282733E+04  d E =-.109875E-04  mag=     2.0000
       N       E                     dE             d eps       ncg     rms          rms(c)
DAV:   1    -0.230703218421E+04    0.20750E-05   -0.15830E-04  4376   0.121E-02    0.474E-03
RMM:   2    -0.230703218795E+04   -0.37408E-05   -0.35692E-05  2449   0.358E-03
 237 F= -.23282733E+04 E0= -.23282733E+04  d E =-.270198E-05  mag=     2.0000
       N       E                     dE             d eps       ncg     rms          rms(c)
DAV:   1    -0.230703218591E+04   -0.16949E-05   -0.23242E-05  2520   0.517E-03    0.368E-03
RMM:   2    -0.230703218744E+04   -0.15320E-05   -0.77401E-06  2322   0.302E-03
 238 F= -.23282733E+04 E0= -.23282733E+04  d E =-.429000E-05  mag=     2.0000
       N       E                     dE             d eps       ncg     rms          rms(c)
DAV:   1    -0.230703218288E+04    0.30249E-05   -0.13559E-04  4272   0.115E-02    0.465E-03
RMM:   2    -0.230703218574E+04   -0.28602E-05   -0.28412E-05  2412   0.337E-03
 239 F= -.23282733E+04 E0= -.23282733E+04  d E =-.335176E-05  mag=     2.0000
       N       E                     dE             d eps       ncg     rms          rms(c)
DAV:   1    -0.230703218366E+04   -0.77509E-06   -0.30382E-05  2568   0.580E-03    0.482E-03
RMM:   2    -0.230703218712E+04   -0.34633E-05   -0.10889E-05  2347   0.338E-03
 240 F= -.23282733E+04 E0= -.23282733E+04  d E =-.698294E-05  mag=     2.0000
       N       E                     dE             d eps       ncg     rms          rms(c)
DAV:   1    -0.230703217971E+04    0.39495E-05   -0.10031E-04  3616   0.906E-03    0.354E-03
RMM:   2    -0.230703218191E+04   -0.22041E-05   -0.23328E-05  2380   0.317E-03
 241 F= -.23282733E+04 E0= -.23282733E+04  d E =-.497151E-06  mag=     2.0000
