       N       E                     dE             d eps       ncg     rms          rms(c)
DAV:   1     0.123669097922E+05    0.12367E+05   -0.83747E+05  4640   0.141E+03
DAV:   2    -0.125261681349E+04   -0.13620E+05   -0.13084E+05  4960   0.321E+02
DAV:   3    -0.249112615421E+04   -0.12385E+04   -0.12277E+04  5440   0.104E+02
DAV:   4    -0.251927523175E+04   -0.28149E+02   -0.27976E+02  5680   0.195E+01
DAV:   5    -0.252010838083E+04   -0.83315E+00   -0.83160E+00  5920   0.282E+00    0.170E+02
RMM:   6    -0.148899267941E+04    0.10311E+04   -0.19035E+03  4508   0.378E+01    0.732E+01
RMM:   7    -0.165486780469E+04   -0.16588E+03   -0.28630E+02  5172   0.142E+01    0.550E+01
RMM:   8    -0.170218322636E+04   -0.47315E+02   -0.83290E+01  5322   0.767E+00    0.431E+01
RMM:   9    -0.176620503613E+04   -0.64022E+02   -0.67249E+01  4972   0.740E+00    0.322E+01
RMM:  10    -0.190394746884E+04   -0.13774E+03   -0.65571E+01  5376   0.778E+00    0.253E+01
RMM:  11    -0.198762414851E+04   -0.83677E+02   -0.33102E+01  5423   0.498E+00    0.177E+01
RMM:  12    -0.208766976400E+04   -0.10005E+03   -0.48760E+01  4751   0.525E+00    0.132E+01
RMM:  13    -0.224617410463E+04   -0.15850E+03   -0.15055E+02  4528   0.827E+00    0.850E+00
RMM:  14    -0.229133759843E+04   -0.45163E+02   -0.44743E+01  4649   0.490E+00    0.518E+00
RMM:  15    -0.230276810571E+04   -0.11431E+02   -0.14126E+01  4957   0.288E+00    0.354E+00
RMM:  16    -0.230750808433E+04   -0.47400E+01   -0.50650E+00  4931   0.147E+00    0.205E+00
RMM:  17    -0.230946732153E+04   -0.19592E+01   -0.14079E+00  4980   0.908E-01    0.236E+00
RMM:  18    -0.230963543337E+04   -0.16811E+00   -0.19416E-01  5495   0.328E-01    0.263E+00
RMM:  19    -0.230972104741E+04   -0.85614E-01   -0.14266E-01  4639   0.212E-01    0.143E+00
RMM:  20    -0.231006350422E+04   -0.34246E+00   -0.13938E-01  4616   0.233E-01    0.138E+00
RMM:  21    -0.231008110281E+04   -0.17599E-01   -0.11425E-01  4630   0.210E-01    0.250E+00
RMM:  22    -0.231014249971E+04   -0.61397E-01   -0.33894E-02  4967   0.946E-02    0.213E+00
RMM:  23    -0.231019370308E+04   -0.51203E-01   -0.16608E-02  4613   0.782E-02    0.186E+00
RMM:  24    -0.231033290760E+04   -0.13920E+00   -0.84073E-02  4605   0.162E-01    0.947E-01
RMM:  25    -0.231036717398E+04   -0.34266E-01   -0.23064E-02  4688   0.993E-02    0.137E+00
RMM:  26    -0.231039992807E+04   -0.32754E-01   -0.19448E-02  5003   0.717E-02    0.221E+00
RMM:  27    -0.231040029761E+04   -0.36954E-03   -0.19287E-03  4550   0.338E-02    0.216E+00
RMM:  28    -0.231039980905E+04    0.48856E-03   -0.40330E-04  3794   0.757E-03    0.216E+00
RMM:  29    -0.231040070669E+04   -0.89764E-03   -0.85118E-05  3215   0.772E-03    0.217E+00
RMM:  30    -0.231040562311E+04   -0.49164E-02   -0.17874E-03  4356   0.224E-02    0.231E+00
RMM:  31    -0.231043236290E+04   -0.26740E-01   -0.10344E-02  4734   0.529E-02    0.277E+00
RMM:  32    -0.231043709573E+04   -0.47328E-02   -0.28161E-03  4439   0.323E-02    0.292E+00
RMM:  33    -0.231047533814E+04   -0.38242E-01   -0.19809E-02  4805   0.680E-02    0.272E+00
RMM:  34    -0.231050585243E+04   -0.30514E-01   -0.21523E-02  4769   0.817E-02    0.240E+00
RMM:  35    -0.231051961247E+04   -0.13760E-01   -0.13296E-02  4982   0.602E-02    0.185E+00
RMM:  36    -0.231052489209E+04   -0.52796E-02   -0.19779E-03  4813   0.254E-02    0.168E+00
RMM:  37    -0.231053125561E+04   -0.63635E-02   -0.36343E-03  4524   0.301E-02    0.134E+00
RMM:  38    -0.231054096769E+04   -0.97121E-02   -0.84799E-03  4668   0.485E-02    0.904E-01
RMM:  39    -0.231055060399E+04   -0.96363E-02   -0.85622E-03  4790   0.507E-02    0.595E-01
RMM:  40    -0.231055565213E+04   -0.50481E-02   -0.34685E-03  4712   0.373E-02    0.372E-01
RMM:  41    -0.231055756183E+04   -0.19097E-02   -0.10943E-03  4618   0.182E-02    0.209E-01
RMM:  42    -0.231055828545E+04   -0.72362E-03   -0.28274E-04  4004   0.112E-02    0.123E-01
RMM:  43    -0.231055863414E+04   -0.34869E-03   -0.17580E-04  3855   0.838E-03    0.594E-02
RMM:  44    -0.231055877362E+04   -0.13948E-03   -0.16239E-04  3541   0.829E-03    0.126E-02
RMM:  45    -0.231055881653E+04   -0.42904E-04   -0.26403E-05  3045   0.435E-03    0.118E-02
RMM:  46    -0.231055883059E+04   -0.14069E-04   -0.73016E-06  2931   0.294E-03    0.237E-03
RMM:  47    -0.231055883371E+04   -0.31132E-05   -0.26801E-06  2724   0.209E-03
   1 F= -.23313417E+04 E0= -.23313417E+04  d E =-.957250E-08  mag=     3.0010
       N       E                     dE             d eps       ncg     rms          rms(c)
DAV:   1    -0.231054298514E+04    0.15845E-01   -0.19447E+00  4480   0.504E-01    0.293E-01
RMM:   2    -0.231054444220E+04   -0.14571E-02   -0.97188E-03  4761   0.372E-02    0.408E-01
RMM:   3    -0.231054280970E+04    0.16325E-02   -0.24067E-03  4479   0.203E-02    0.190E-01
RMM:   4    -0.231054250338E+04    0.30631E-03   -0.57118E-04  3740   0.101E-02    0.784E-02
RMM:   5    -0.231054253271E+04   -0.29324E-04   -0.29224E-04  3208   0.797E-03    0.949E-02
RMM:   6    -0.231054244641E+04    0.86300E-04   -0.12690E-04  3053   0.596E-03    0.384E-02
RMM:   7    -0.231054243045E+04    0.15961E-04   -0.24967E-05  2705   0.332E-03    0.129E-02
RMM:   8    -0.231054242919E+04    0.12560E-05   -0.60745E-06  2627   0.197E-03
   2 F= -.23313265E+04 E0= -.23313265E+04  d E =-.181708E-07  mag=     3.0003
       N       E                     dE             d eps       ncg     rms          rms(c)
DAV:   1    -0.231056558392E+04   -0.23153E-01   -0.78151E+00  4480   0.979E-01    0.582E-01
RMM:   2    -0.231057034661E+04   -0.47627E-02   -0.34287E-02  4618   0.724E-02    0.773E-01
RMM:   3    -0.231056467409E+04    0.56725E-02   -0.87901E-03  5568   0.385E-02    0.389E-01
RMM:   4    -0.231056333881E+04    0.13353E-02   -0.20879E-03  4637   0.192E-02    0.155E-01
RMM:   5    -0.231056352890E+04   -0.19009E-03   -0.12111E-03  3907   0.155E-02    0.193E-01
RMM:   6    -0.231056315276E+04    0.37614E-03   -0.49705E-04  3645   0.110E-02    0.707E-02
RMM:   7    -0.231056309902E+04    0.53734E-04   -0.93297E-05  3031   0.587E-03    0.253E-02
RMM:   8    -0.231056309633E+04    0.26977E-05   -0.21897E-05  2876   0.343E-03
   3 F= -.23313449E+04 E0= -.23313449E+04  d E =-.451020E-08  mag=     3.0001
       N       E                     dE             d eps       ncg     rms          rms(c)
DAV:   1    -0.231055961117E+04    0.34879E-02   -0.35623E+00  4480   0.673E-01    0.307E-01
RMM:   2    -0.231055996717E+04   -0.35601E-03   -0.11369E-02  4290   0.396E-02    0.269E-01
RMM:   3    -0.231055998041E+04   -0.13241E-04   -0.23751E-03  4581   0.196E-02    0.298E-01
RMM:   4    -0.231055912998E+04    0.85043E-03   -0.96023E-04  3786   0.122E-02    0.513E-02
RMM:   5    -0.231055914684E+04   -0.16860E-04   -0.16875E-04  3174   0.654E-03    0.443E-02
RMM:   6    -0.231055913613E+04    0.10712E-04   -0.51873E-05  2819   0.444E-03    0.309E-02
RMM:   7    -0.231055912785E+04    0.82797E-05   -0.14578E-05  2661   0.261E-03
   4 F= -.23313419E+04 E0= -.23313419E+04  d E =-.511277E-08  mag=     3.0000
       N       E                     dE             d eps       ncg     rms          rms(c)
DAV:   1    -0.231055633600E+04    0.28001E-02   -0.70525E+00  4480   0.899E-01    0.499E-01
RMM:   2    -0.231055843780E+04   -0.21018E-02   -0.24173E-02  5153   0.568E-02    0.514E-01
RMM:   3    -0.231055655054E+04    0.18873E-02   -0.66952E-03  5541   0.348E-02    0.392E-01
RMM:   4    -0.231055504358E+04    0.15070E-02   -0.20517E-03  4521   0.204E-02    0.118E-01
RMM:   5    -0.231055507100E+04   -0.27421E-04   -0.61075E-04  3482   0.983E-03    0.139E-01
RMM:   6    -0.231055492881E+04    0.14219E-03   -0.24268E-04  3166   0.760E-03    0.582E-02
RMM:   7    -0.231055490028E+04    0.28535E-04   -0.53113E-05  2974   0.453E-03    0.225E-02
RMM:   8    -0.231055489999E+04    0.28203E-06   -0.16966E-05  2887   0.305E-03
   5 F= -.23313379E+04 E0= -.23313379E+04  d E =-.172990E-07  mag=     3.0000
       N       E                     dE             d eps       ncg     rms          rms(c)
DAV:   1    -0.231058192490E+04   -0.27025E-01   -0.37364E+00  4480   0.703E-01    0.396E-01
RMM:   2    -0.231058249012E+04   -0.56521E-03   -0.17689E-02  4107   0.472E-02    0.232E-01
RMM:   3    -0.231058283807E+04   -0.34796E-03   -0.31611E-03  4740   0.291E-02    0.279E-01
RMM:   4    -0.231058201114E+04    0.82693E-03   -0.15384E-03  4305   0.183E-02    0.120E-01
RMM:   5    -0.231058195741E+04    0.53730E-04   -0.28356E-04  3459   0.865E-03    0.590E-02
RMM:   6    -0.231058199338E+04   -0.35966E-04   -0.14822E-04  3153   0.649E-03    0.692E-02
RMM:   7    -0.231058197195E+04    0.21435E-04   -0.70414E-05  2916   0.467E-03    0.329E-02
RMM:   8    -0.231058196652E+04    0.54267E-05   -0.22707E-05  2903   0.323E-03
   6 F= -.23313667E+04 E0= -.23313667E+04  d E =-.108099E-08  mag=     3.0000
       N       E                     dE             d eps       ncg     rms          rms(c)
DAV:   1    -0.231052058128E+04    0.61391E-01   -0.78282E+00  4480   0.112E+00    0.603E-01
RMM:   2    -0.231052349901E+04   -0.29177E-02   -0.47595E-02  4848   0.783E-02    0.456E-01
RMM:   3    -0.231052521168E+04   -0.17127E-02   -0.10594E-02  5423   0.453E-02    0.683E-01
RMM:   4    -0.231052093665E+04    0.42750E-02   -0.41388E-03  4651   0.294E-02    0.166E-01
RMM:   5    -0.231052124474E+04   -0.30809E-03   -0.14282E-03  4223   0.158E-02    0.168E-01
RMM:   6    -0.231052108401E+04    0.16074E-03   -0.51643E-04  3494   0.988E-03    0.969E-02
RMM:   7    -0.231052107342E+04    0.10586E-04   -0.21305E-04  3356   0.811E-03    0.391E-02
RMM:   8    -0.231052108520E+04   -0.11778E-04   -0.65765E-05  3038   0.533E-03    0.214E-02
RMM:   9    -0.231052109055E+04   -0.53495E-05   -0.17894E-05  2940   0.355E-03
   7 F= -.23313022E+04 E0= -.23313022E+04  d E =-.445760E-07  mag=     3.0000
       N       E                     dE             d eps       ncg     rms          rms(c)
DAV:   1    -0.231054120922E+04   -0.20124E-01   -0.37835E+00  4480   0.779E-01    0.433E-01
RMM:   2    -0.231054166024E+04   -0.45102E-03   -0.19823E-02  4574   0.533E-02    0.261E-01
RMM:   3    -0.231054240290E+04   -0.74266E-03   -0.41257E-03  4605   0.305E-02    0.384E-01
RMM:   4    -0.231054097576E+04    0.14271E-02   -0.23651E-03  4200   0.220E-02    0.135E-01
RMM:   5    -0.231054077648E+04    0.19928E-03   -0.50768E-04  3609   0.112E-02    0.630E-02
RMM:   6    -0.231054077665E+04   -0.17593E-06   -0.11594E-04  2969   0.570E-03    0.583E-02
RMM:   7    -0.231054075318E+04    0.23468E-04   -0.48063E-05  2869   0.357E-03    0.298E-02
RMM:   8    -0.231054075106E+04    0.21235E-05   -0.19650E-05  2862   0.292E-03
   8 F= -.23313223E+04 E0= -.23313223E+04  d E =-.140215E-07  mag=     3.0000
       N       E                     dE             d eps       ncg     rms          rms(c)
DAV:   1    -0.231056513085E+04   -0.24378E-01   -0.76640E+00  4480   0.102E+00    0.658E-01
RMM:   2    -0.231056657498E+04   -0.14441E-02   -0.33120E-02  4239   0.695E-02    0.460E-01
RMM:   3    -0.231056852003E+04   -0.19451E-02   -0.90720E-03  5309   0.406E-02    0.686E-01
RMM:   4    -0.231056467398E+04    0.38461E-02   -0.55512E-03  5215   0.301E-02    0.206E-01
RMM:   5    -0.231056436909E+04    0.30489E-03   -0.11184E-03  4306   0.150E-02    0.744E-02
RMM:   6    -0.231056433077E+04    0.38314E-04   -0.16730E-04  3210   0.724E-03    0.413E-02
RMM:   7    -0.231056435757E+04   -0.26800E-04   -0.88598E-05  3041   0.566E-03    0.535E-02
RMM:   8    -0.231056432666E+04    0.30907E-04   -0.42456E-05  3002   0.434E-03    0.162E-02
RMM:   9    -0.231056432675E+04   -0.88752E-07   -0.74409E-06  2742   0.239E-03
   9 F= -.23313486E+04 E0= -.23313486E+04  d E =-.560527E-08  mag=     3.0000
       N       E                     dE             d eps       ncg     rms          rms(c)
DAV:   1    -0.231055154330E+04    0.12783E-01   -0.37552E+00  4480   0.660E-01    0.399E-01
RMM:   2    -0.231055316820E+04   -0.16249E-02   -0.11330E-02  4834   0.431E-02    0.405E-01
RMM:   3    -0.231055222854E+04    0.93965E-03   -0.39529E-03  5050   0.280E-02    0.316E-01
RMM:   4    -0.231055127996E+04    0.94859E-03   -0.10422E-03  4102   0.141E-02    0.990E-02
RMM:   5    -0.231055141174E+04   -0.13178E-03   -0.46599E-04  3311   0.105E-02    0.135E-01
RMM:   6    -0.231055123638E+04    0.17536E-03   -0.16459E-04  3037   0.677E-03    0.325E-02
RMM:   7    -0.231055123021E+04    0.61622E-05   -0.32480E-05  2834   0.344E-03
  10 F= -.23313344E+04 E0= -.23313344E+04  d E =-.380132E-08  mag=     3.0000
       N       E                     dE             d eps       ncg     rms          rms(c)
DAV:   1    -0.231055473653E+04   -0.35002E-02   -0.79121E+00  4480   0.100E+00    0.638E-01
RMM:   2    -0.231056181061E+04   -0.70741E-02   -0.36066E-02  5371   0.811E-02    0.818E-01
RMM:   3    -0.231055444920E+04    0.73614E-02   -0.10907E-02  5591   0.465E-02    0.406E-01
RMM:   4    -0.231055313605E+04    0.13131E-02   -0.31481E-03  5116   0.239E-02    0.214E-01
RMM:   5    -0.231055260611E+04    0.52994E-03   -0.94464E-04  4240   0.139E-02    0.732E-02
RMM:   6    -0.231055260280E+04    0.33135E-05   -0.17760E-04  3175   0.632E-03    0.738E-02
RMM:   7    -0.231055255991E+04    0.42893E-04   -0.72472E-05  2873   0.430E-03    0.316E-02
RMM:   8    -0.231055255127E+04    0.86386E-05   -0.20010E-05  2845   0.257E-03
  11 F= -.23313352E+04 E0= -.23313352E+04  d E =-.223916E-07  mag=     3.0000
       N       E                     dE             d eps       ncg     rms          rms(c)
DAV:   1    -0.231054012373E+04    0.12436E-01   -0.40723E+00  4480   0.760E-01    0.587E-01
RMM:   2    -0.231054747358E+04   -0.73498E-02   -0.36818E-02  5389   0.833E-02    0.873E-01
RMM:   3    -0.231053848310E+04    0.89905E-02   -0.96463E-03  5594   0.452E-02    0.363E-01
RMM:   4    -0.231053755125E+04    0.93185E-03   -0.30840E-03  4805   0.245E-02    0.205E-01
RMM:   5    -0.231053758229E+04   -0.31036E-04   -0.16675E-03  4659   0.163E-02    0.203E-01
RMM:   6    -0.231053714106E+04    0.44123E-03   -0.38458E-04  3173   0.870E-03    0.413E-02
RMM:   7    -0.231053711457E+04    0.26493E-04   -0.49565E-05  2855   0.377E-03    0.173E-02
RMM:   8    -0.231053711108E+04    0.34834E-05   -0.26905E-05  2912   0.251E-03
  12 F= -.23313188E+04 E0= -.23313188E+04  d E =-.577909E-08  mag=     3.0000
       N       E                     dE             d eps       ncg     rms          rms(c)
DAV:   1    -0.231055716056E+04   -0.20046E-01   -0.75329E+00  4480   0.105E+00    0.826E-01
RMM:   2    -0.231057131472E+04   -0.14154E-01   -0.66523E-02  5378   0.112E-01    0.127E+00
RMM:   3    -0.231055349062E+04    0.17824E-01   -0.18939E-02  5775   0.599E-02    0.518E-01
RMM:   4    -0.231055172316E+04    0.17675E-02   -0.63736E-03  5255   0.346E-02    0.289E-01
RMM:   5    -0.231055154397E+04    0.17919E-03   -0.33911E-03  5074   0.238E-02    0.268E-01
RMM:   6    -0.231055084259E+04    0.70137E-03   -0.83525E-04  3675   0.135E-02    0.921E-02
RMM:   7    -0.231055074405E+04    0.98545E-04   -0.88641E-05  3020   0.620E-03    0.290E-02
RMM:   8    -0.231055074445E+04   -0.40123E-06   -0.45569E-05  3137   0.371E-03
  13 F= -.23313349E+04 E0= -.23313349E+04  d E =-.166123E-07  mag=     3.0000
       N       E                     dE             d eps       ncg     rms          rms(c)
DAV:   1    -0.231055882323E+04   -0.80792E-02   -0.24196E+00  4480   0.581E-01    0.517E-01
RMM:   2    -0.231056249086E+04   -0.36676E-02   -0.24454E-02  4995   0.642E-02    0.704E-01
RMM:   3    -0.231055739981E+04    0.50911E-02   -0.68154E-03  5426   0.362E-02    0.372E-01
RMM:   4    -0.231055635129E+04    0.10485E-02   -0.22986E-03  4573   0.218E-02    0.184E-01
RMM:   5    -0.231055630189E+04    0.49396E-04   -0.12008E-03  4357   0.144E-02    0.153E-01
RMM:   6    -0.231055608943E+04    0.21246E-03   -0.35133E-04  3223   0.937E-03    0.648E-02
RMM:   7    -0.231055603368E+04    0.55750E-04   -0.37909E-05  2789   0.410E-03    0.156E-02
RMM:   8    -0.231055602962E+04    0.40588E-05   -0.22211E-05  2808   0.232E-03
  14 F= -.23313388E+04 E0= -.23313388E+04  d E =-.163043E-07  mag=     3.0000
       N       E                     dE             d eps       ncg     rms          rms(c)
DAV:   1    -0.231055445427E+04    0.15794E-02   -0.12147E+00  4960   0.352E-01    0.482E-01
RMM:   2    -0.231055353736E+04    0.91690E-03   -0.11464E-02  4691   0.335E-02    0.363E-01
RMM:   3    -0.231055296172E+04    0.57564E-03   -0.35176E-03  4702   0.251E-02    0.332E-01
RMM:   4    -0.231055270558E+04    0.25614E-03   -0.24543E-03  4764   0.202E-02    0.296E-01
RMM:   5    -0.231055185960E+04    0.84598E-03   -0.88965E-04  3874   0.142E-02    0.665E-02
RMM:   6    -0.231055186741E+04   -0.78175E-05   -0.21525E-04  3179   0.706E-03    0.767E-02
RMM:   7    -0.231055180193E+04    0.65488E-04   -0.62037E-05  2780   0.467E-03    0.194E-02
RMM:   8    -0.231055179621E+04    0.57108E-05   -0.13250E-05  2702   0.230E-03
  15 F= -.23313348E+04 E0= -.23313348E+04  d E =-.538756E-08  mag=     3.0000
       N       E                     dE             d eps       ncg     rms          rms(c)
DAV:   1    -0.231055199040E+04   -0.18847E-03   -0.59566E-01  4480   0.232E-01    0.278E-01
RMM:   2    -0.231055198661E+04    0.37936E-05   -0.22156E-03  3640   0.159E-02    0.179E-01
RMM:   3    -0.231055295460E+04   -0.96799E-03   -0.16789E-03  4504   0.168E-02    0.301E-01
RMM:   4    -0.231055183119E+04    0.11234E-02   -0.82865E-04  3641   0.144E-02    0.293E-02
RMM:   5    -0.231055182277E+04    0.84235E-05   -0.10233E-04  3115   0.420E-03    0.305E-02
RMM:   6    -0.231055181373E+04    0.90356E-05   -0.16189E-05  2464   0.247E-03
  16 F= -.23313344E+04 E0= -.23313344E+04  d E =-.727597E-08  mag=     3.0000
       N       E                     dE             d eps       ncg     rms          rms(c)
DAV:   1    -0.231055925311E+04   -0.74303E-02   -0.11984E+00  4640   0.333E-01    0.483E-01
RMM:   2    -0.231055922844E+04    0.24665E-04   -0.13770E-02  4868   0.415E-02    0.417E-01
RMM:   3    -0.231055822389E+04    0.10046E-02   -0.46858E-03  5156   0.299E-02    0.367E-01
RMM:   4    -0.231055724293E+04    0.98097E-03   -0.20590E-03  4681   0.207E-02    0.220E-01
RMM:   5    -0.231055674795E+04    0.49498E-03   -0.72895E-04  3770   0.132E-02    0.741E-02
RMM:   6    -0.231055675966E+04   -0.11713E-04   -0.22787E-04  3117   0.683E-03    0.867E-02
RMM:   7    -0.231055668265E+04    0.77012E-04   -0.52755E-05  2730   0.399E-03    0.148E-02
RMM:   8    -0.231055668114E+04    0.15101E-05   -0.10323E-05  2623   0.204E-03
  17 F= -.23313398E+04 E0= -.23313398E+04  d E =-.121599E-07  mag=     3.0000
       N       E                     dE             d eps       ncg     rms          rms(c)
DAV:   1    -0.231055811457E+04   -0.14319E-02   -0.62819E-01  5040   0.257E-01    0.450E-01
RMM:   2    -0.231055804611E+04    0.68455E-04   -0.14148E-02  5178   0.408E-02    0.467E-01
RMM:   3    -0.231055596926E+04    0.20768E-02   -0.46806E-03  4893   0.299E-02    0.354E-01
RMM:   4    -0.231055498037E+04    0.98889E-03   -0.17983E-03  4315   0.180E-02    0.184E-01
RMM:   5    -0.231055472142E+04    0.25895E-03   -0.59092E-04  3772   0.111E-02    0.884E-02
RMM:   6    -0.231055469861E+04    0.22807E-04   -0.25939E-04  3165   0.776E-03    0.775E-02
RMM:   7    -0.231055462326E+04    0.75350E-04   -0.52230E-05  2752   0.449E-03    0.117E-02
RMM:   8    -0.231055462030E+04    0.29629E-05   -0.98211E-06  2511   0.198E-03
  18 F= -.23313372E+04 E0= -.23313372E+04  d E =-.132522E-07  mag=     3.0000
       N       E                     dE             d eps       ncg     rms          rms(c)
DAV:   1    -0.231055677135E+04   -0.21481E-02   -0.12073E+00  4960   0.341E-01    0.568E-01
RMM:   2    -0.231055704675E+04   -0.27541E-03   -0.21674E-02  5229   0.487E-02    0.612E-01
RMM:   3    -0.231055388248E+04    0.31643E-02   -0.76808E-03  5022   0.342E-02    0.470E-01
RMM:   4    -0.231055219968E+04    0.16828E-02   -0.31045E-03  4748   0.239E-02    0.225E-01
RMM:   5    -0.231055174505E+04    0.45463E-03   -0.84955E-04  4001   0.130E-02    0.781E-02
RMM:   6    -0.231055178521E+04   -0.40169E-04   -0.29702E-04  3269   0.841E-03    0.928E-02
RMM:   7    -0.231055167252E+04    0.11269E-03   -0.80125E-05  2872   0.553E-03    0.144E-02
RMM:   8    -0.231055166910E+04    0.34189E-05   -0.14302E-05  2616   0.211E-03
  19 F= -.23313349E+04 E0= -.23313349E+04  d E =-.662671E-08  mag=     3.0000
