       N       E                     dE             d eps       ncg     rms          rms(c)
DAV:   1     0.120647508002E+05    0.12065E+05   -0.82891E+05  4640   0.140E+03
DAV:   2    -0.129331498278E+04   -0.13358E+05   -0.12850E+05  5120   0.317E+02
DAV:   3    -0.248585702315E+04   -0.11925E+04   -0.11832E+04  5520   0.101E+02
DAV:   4    -0.251070724461E+04   -0.24850E+02   -0.24741E+02  5760   0.174E+01
DAV:   5    -0.251132605319E+04   -0.61881E+00   -0.61781E+00  5760   0.244E+00    0.170E+02
RMM:   6    -0.146907145258E+04    0.10423E+04   -0.18913E+03  4496   0.374E+01    0.721E+01
RMM:   7    -0.164051600334E+04   -0.17144E+03   -0.25967E+02  4991   0.130E+01    0.476E+01
RMM:   8    -0.169664145784E+04   -0.56125E+02   -0.33363E+01  5156   0.654E+00    0.373E+01
RMM:   9    -0.182269446257E+04   -0.12605E+03   -0.67063E+01  5004   0.769E+00    0.360E+01
RMM:  10    -0.192897553591E+04   -0.10628E+03   -0.48646E+01  5350   0.646E+00    0.205E+01
RMM:  11    -0.204397884853E+04   -0.11500E+03   -0.50264E+01  4778   0.546E+00    0.152E+01
RMM:  12    -0.215172154042E+04   -0.10774E+03   -0.61873E+01  4579   0.589E+00    0.112E+01
RMM:  13    -0.225604675828E+04   -0.10433E+03   -0.89793E+01  4631   0.658E+00    0.680E+00
RMM:  14    -0.229516278602E+04   -0.39116E+02   -0.39484E+01  4679   0.473E+00    0.411E+00
RMM:  15    -0.230476033356E+04   -0.95975E+01   -0.13168E+01  5086   0.249E+00    0.385E+00
RMM:  16    -0.230578217923E+04   -0.10218E+01   -0.21918E+00  5450   0.918E-01    0.332E+00
RMM:  17    -0.230659465814E+04   -0.81248E+00   -0.68233E-01  4655   0.491E-01    0.223E+00
RMM:  18    -0.230741729678E+04   -0.82264E+00   -0.39158E-01  4594   0.439E-01    0.115E+00
RMM:  19    -0.230768158133E+04   -0.26428E+00   -0.88956E-02  4930   0.259E-01    0.560E-01
RMM:  20    -0.230773421886E+04   -0.52638E-01   -0.34644E-02  4671   0.144E-01    0.340E-01
RMM:  21    -0.230775384001E+04   -0.19621E-01   -0.99230E-03  4682   0.971E-02    0.186E-01
RMM:  22    -0.230777018763E+04   -0.16348E-01   -0.61577E-03  4511   0.561E-02    0.116E-01
RMM:  23    -0.230778154732E+04   -0.11360E-01   -0.35556E-03  4518   0.474E-02    0.120E-01
RMM:  24    -0.230778874658E+04   -0.71993E-02   -0.20840E-03  4654   0.369E-02    0.550E-02
RMM:  25    -0.230779285508E+04   -0.41085E-02   -0.11410E-03  4548   0.253E-02    0.461E-02
RMM:  26    -0.230779609162E+04   -0.32365E-02   -0.86986E-04  4151   0.210E-02    0.221E-02
RMM:  27    -0.230779722134E+04   -0.11297E-02   -0.37458E-04  4221   0.158E-02    0.139E-02
RMM:  28    -0.230779763687E+04   -0.41553E-03   -0.12829E-04  3880   0.896E-03    0.881E-03
RMM:  29    -0.230779779207E+04   -0.15520E-03   -0.39594E-05  3443   0.585E-03    0.628E-03
RMM:  30    -0.230779786485E+04   -0.72776E-04   -0.19015E-05  3145   0.413E-03    0.201E-03
RMM:  31    -0.230779789297E+04   -0.28126E-04   -0.85724E-06  2926   0.322E-03    0.197E-03
RMM:  32    -0.230779789975E+04   -0.67756E-05   -0.39041E-06  2699   0.239E-03
   1 F= -.23283086E+04 E0= -.23283086E+04  d E =-.362691E-12  mag=     4.0000
       N       E                     dE             d eps       ncg     rms          rms(c)
DAV:   1    -0.230780662840E+04   -0.87354E-02   -0.20538E+00  4400   0.399E-01    0.285E-01
RMM:   2    -0.230780556120E+04    0.10672E-02   -0.91276E-03  3873   0.285E-02    0.155E-01
RMM:   3    -0.230780510341E+04    0.45779E-03   -0.19154E-03  4481   0.151E-02    0.114E-01
RMM:   4    -0.230780520174E+04   -0.98329E-04   -0.60675E-04  3308   0.809E-03    0.154E-01
RMM:   5    -0.230780507518E+04    0.12656E-03   -0.17041E-04  2872   0.551E-03    0.489E-02
RMM:   6    -0.230780505915E+04    0.16021E-04   -0.23929E-05  2770   0.263E-03    0.146E-02
RMM:   7    -0.230780506123E+04   -0.20706E-05   -0.45231E-06  2692   0.175E-03
   2 F= -.23283189E+04 E0= -.23283189E+04  d E =-.960654E-11  mag=     4.0000
       N       E                     dE             d eps       ncg     rms          rms(c)
DAV:   1    -0.230778102210E+04    0.24037E-01   -0.81428E+00  4480   0.810E-01    0.576E-01
RMM:   2    -0.230777519295E+04    0.58292E-02   -0.23877E-02  4113   0.505E-02    0.305E-01
RMM:   3    -0.230777336232E+04    0.18306E-02   -0.75020E-03  4939   0.283E-02    0.151E-01
RMM:   4    -0.230777375831E+04   -0.39598E-03   -0.19067E-03  4302   0.145E-02    0.267E-01
RMM:   5    -0.230777340212E+04    0.35619E-03   -0.53871E-04  3166   0.796E-03    0.922E-02
RMM:   6    -0.230777333675E+04    0.65372E-04   -0.72817E-05  2959   0.407E-03    0.279E-02
RMM:   7    -0.230777334599E+04   -0.92432E-05   -0.13895E-05  2891   0.277E-03
   3 F= -.23282808E+04 E0= -.23282808E+04  d E =-.476785E-12  mag=     4.0000
       N       E                     dE             d eps       ncg     rms          rms(c)
DAV:   1    -0.230776808676E+04    0.52500E-02   -0.41651E+00  4640   0.667E-01    0.426E-01
RMM:   2    -0.230776558668E+04    0.25001E-02   -0.12876E-02  3992   0.354E-02    0.263E-01
RMM:   3    -0.230776632223E+04   -0.73556E-03   -0.50444E-03  4601   0.238E-02    0.521E-01
RMM:   4    -0.230776466782E+04    0.16544E-02   -0.22266E-03  4671   0.146E-02    0.155E-01
RMM:   5    -0.230776459430E+04    0.73520E-04   -0.31653E-04  3172   0.672E-03    0.523E-02
RMM:   6    -0.230776458011E+04    0.14183E-04   -0.45947E-05  2851   0.364E-03    0.334E-02
RMM:   7    -0.230776457494E+04    0.51717E-05   -0.13134E-05  2768   0.221E-03
   4 F= -.23282755E+04 E0= -.23282755E+04  d E =-.545846E-13  mag=     4.0000
       N       E                     dE             d eps       ncg     rms          rms(c)
DAV:   1    -0.230780518081E+04   -0.40601E-01   -0.84161E+00  4480   0.100E+00    0.594E-01
RMM:   2    -0.230780161789E+04    0.35629E-02   -0.22863E-02  4044   0.503E-02    0.407E-01
RMM:   3    -0.230780385240E+04   -0.22345E-02   -0.87497E-03  5153   0.290E-02    0.827E-01
RMM:   4    -0.230779968956E+04    0.41628E-02   -0.53916E-03  4869   0.214E-02    0.167E-01
RMM:   5    -0.230779966419E+04    0.25369E-04   -0.83483E-04  3565   0.968E-03    0.468E-02
RMM:   6    -0.230779965120E+04    0.12992E-04   -0.77258E-05  2959   0.483E-03    0.411E-02
RMM:   7    -0.230779964148E+04    0.97216E-05   -0.23759E-05  2859   0.275E-03
   5 F= -.23283105E+04 E0= -.23283105E+04  d E =-.173752E-11  mag=     4.0000
       N       E                     dE             d eps       ncg     rms          rms(c)
DAV:   1    -0.230779912503E+04    0.52617E-03   -0.42257E+00  4480   0.661E-01    0.423E-01
RMM:   2    -0.230779767354E+04    0.14515E-02   -0.13820E-02  3993   0.385E-02    0.466E-01
RMM:   3    -0.230779745026E+04    0.22329E-03   -0.37180E-03  4777   0.204E-02    0.456E-01
RMM:   4    -0.230779597429E+04    0.14760E-02   -0.29766E-03  4285   0.154E-02    0.150E-01
RMM:   5    -0.230779585140E+04    0.12289E-03   -0.46807E-04  3265   0.100E-02    0.339E-02
RMM:   6    -0.230779585233E+04   -0.92686E-06   -0.53611E-05  2968   0.382E-03
   6 F= -.23283060E+04 E0= -.23283060E+04  d E =-.430451E-12  mag=     4.0000
       N       E                     dE             d eps       ncg     rms          rms(c)
DAV:   1    -0.230778738581E+04    0.84656E-02   -0.83554E+00  4480   0.797E-01    0.547E-01
RMM:   2    -0.230778376727E+04    0.36185E-02   -0.27833E-02  4169   0.473E-02    0.573E-01
RMM:   3    -0.230778350883E+04    0.25844E-03   -0.63554E-03  4851   0.266E-02    0.611E-01
RMM:   4    -0.230778089608E+04    0.26127E-02   -0.46385E-03  4408   0.193E-02    0.234E-01
RMM:   5    -0.230778057202E+04    0.32406E-03   -0.76214E-04  3523   0.130E-02    0.471E-02
RMM:   6    -0.230778059177E+04   -0.19749E-04   -0.95983E-05  3081   0.488E-03    0.304E-02
RMM:   7    -0.230778059767E+04   -0.58987E-05   -0.20999E-05  2914   0.346E-03
   7 F= -.23282920E+04 E0= -.23282920E+04  d E =-.176060E-12  mag=     4.0000
       N       E                     dE             d eps       ncg     rms          rms(c)
DAV:   1    -0.230788887624E+04   -0.10828E+00   -0.24100E+00  4480   0.419E-01    0.316E-01
RMM:   2    -0.230788845827E+04    0.41797E-03   -0.10296E-02  3897   0.279E-02    0.354E-01
RMM:   3    -0.230788823836E+04    0.21991E-03   -0.20569E-03  4594   0.144E-02    0.354E-01
RMM:   4    -0.230788742057E+04    0.81779E-03   -0.18847E-03  3882   0.125E-02    0.119E-01
RMM:   5    -0.230788734266E+04    0.77909E-04   -0.17773E-04  3014   0.775E-03    0.223E-02
RMM:   6    -0.230788734581E+04   -0.31560E-05   -0.22428E-05  2820   0.285E-03
   8 F= -.23283948E+04 E0= -.23283948E+04  d E =-.950051E-13  mag=     4.0000
       N       E                     dE             d eps       ncg     rms          rms(c)
DAV:   1    -0.230770944605E+04    0.17790E+00   -0.10612E+00  4480   0.183E-01    0.376E-01
RMM:   2    -0.230770876054E+04    0.68552E-03   -0.71331E-03  4064   0.199E-02    0.249E-01
RMM:   3    -0.230770999677E+04   -0.12362E-02   -0.25548E-03  4677   0.145E-02    0.568E-01
RMM:   4    -0.230770811128E+04    0.18855E-02   -0.15949E-03  3636   0.126E-02    0.666E-02
RMM:   5    -0.230770811620E+04   -0.49243E-05   -0.33682E-04  2974   0.577E-03    0.375E-02
RMM:   6    -0.230770810679E+04    0.94139E-05   -0.26088E-05  2823   0.339E-03
   9 F= -.23282213E+04 E0= -.23282213E+04  d E =-.487913E-12  mag=     4.0000
       N       E                     dE             d eps       ncg     rms          rms(c)
DAV:   1    -0.230781512716E+04   -0.10701E+00   -0.52702E-01  4640   0.131E-01    0.228E-01
RMM:   2    -0.230781481933E+04    0.30783E-03   -0.28917E-03  3473   0.118E-02    0.123E-01
RMM:   3    -0.230781465765E+04    0.16169E-03   -0.45347E-04  3332   0.667E-03    0.905E-02
RMM:   4    -0.230781471090E+04   -0.53257E-04   -0.24194E-04  2740   0.548E-03    0.119E-01
RMM:   5    -0.230781462830E+04    0.82605E-04   -0.54953E-05  2674   0.357E-03    0.151E-02
RMM:   6    -0.230781462792E+04    0.37877E-06   -0.82876E-06  2586   0.169E-03
  10 F= -.23283256E+04 E0= -.23283256E+04  d E =-.319290E-12  mag=     4.0000
       N       E                     dE             d eps       ncg     rms          rms(c)
DAV:   1    -0.230777899726E+04    0.35631E-01   -0.10214E+00  4480   0.171E-01    0.181E-01
RMM:   2    -0.230777913822E+04   -0.14096E-03   -0.22213E-03  3393   0.108E-02    0.157E-01
RMM:   3    -0.230777932369E+04   -0.18548E-03   -0.62746E-04  3133   0.714E-03    0.236E-01
RMM:   4    -0.230777903861E+04    0.28508E-03   -0.42134E-04  3177   0.671E-03    0.428E-02
RMM:   5    -0.230777904291E+04   -0.42961E-05   -0.42170E-05  2729   0.324E-03
  11 F= -.23282897E+04 E0= -.23282897E+04  d E =-.158882E-12  mag=     4.0000
       N       E                     dE             d eps       ncg     rms          rms(c)
DAV:   1    -0.230773559737E+04    0.43441E-01   -0.51338E-01  4480   0.122E-01    0.130E-01
RMM:   2    -0.230773570666E+04   -0.10929E-03   -0.13077E-03  3180   0.879E-03    0.761E-02
RMM:   3    -0.230773569523E+04    0.11434E-04   -0.14718E-04  2965   0.474E-03    0.425E-02
RMM:   4    -0.230773575067E+04   -0.55437E-04   -0.87395E-05  2782   0.374E-03    0.101E-01
RMM:   5    -0.230773569281E+04    0.57857E-04   -0.54380E-05  2576   0.324E-03    0.113E-02
RMM:   6    -0.230773569404E+04   -0.12282E-05   -0.63150E-06  2337   0.142E-03
  12 F= -.23282461E+04 E0= -.23282461E+04  d E =-.118556E-11  mag=     4.0000
       N       E                     dE             d eps       ncg     rms          rms(c)
DAV:   1    -0.230785645948E+04   -0.12077E+00   -0.10324E+00  4560   0.170E-01    0.247E-01
RMM:   2    -0.230785646170E+04   -0.22134E-05   -0.33910E-03  3727   0.136E-02    0.174E-01
RMM:   3    -0.230785712304E+04   -0.66134E-03   -0.14159E-03  3260   0.114E-02    0.373E-01
RMM:   4    -0.230785625120E+04    0.87184E-03   -0.51056E-04  3247   0.846E-03    0.506E-02
RMM:   5    -0.230785624497E+04    0.62314E-05   -0.86435E-05  2906   0.424E-03
  13 F= -.23283675E+04 E0= -.23283675E+04  d E =-.486719E-13  mag=     4.0000
       N       E                     dE             d eps       ncg     rms          rms(c)
DAV:   1    -0.230775328695E+04    0.10296E+00   -0.55607E-01  4640   0.224E-01    0.247E-01
RMM:   2    -0.230775300620E+04    0.28075E-03   -0.43283E-03  3648   0.203E-02    0.161E-01
RMM:   3    -0.230775348983E+04   -0.48363E-03   -0.10585E-03  3999   0.101E-02    0.349E-01
RMM:   4    -0.230775279929E+04    0.69055E-03   -0.69902E-04  3151   0.879E-03    0.589E-02
RMM:   5    -0.230775278262E+04    0.16665E-04   -0.12319E-04  2891   0.470E-03    0.260E-02
RMM:   6    -0.230775277914E+04    0.34799E-05   -0.15351E-05  2671   0.262E-03
  14 F= -.23282638E+04 E0= -.23282638E+04  d E =-.584099E-12  mag=     4.0000
       N       E                     dE             d eps       ncg     rms          rms(c)
DAV:   1    -0.230783638177E+04   -0.83599E-01   -0.12064E+00  5040   0.380E-01    0.444E-01
RMM:   2    -0.230783430590E+04    0.20759E-02   -0.10907E-02  3869   0.296E-02    0.280E-01
RMM:   3    -0.230783544701E+04   -0.11411E-02   -0.31902E-03  4430   0.183E-02    0.567E-01
RMM:   4    -0.230783360223E+04    0.18448E-02   -0.18131E-03  4016   0.138E-02    0.130E-01
RMM:   5    -0.230783351180E+04    0.90431E-04   -0.38284E-04  3322   0.740E-03    0.561E-02
RMM:   6    -0.230783349954E+04    0.12256E-04   -0.49827E-05  2853   0.438E-03    0.248E-02
RMM:   7    -0.230783349609E+04    0.34525E-05   -0.10685E-05  2723   0.210E-03
  15 F= -.23283439E+04 E0= -.23283439E+04  d E =-.570644E-13  mag=     4.0000
       N       E                     dE             d eps       ncg     rms          rms(c)
DAV:   1    -0.230779114430E+04    0.42355E-01   -0.62440E-01  5120   0.267E-01    0.414E-01
RMM:   2    -0.230778866643E+04    0.24779E-02   -0.11960E-02  3960   0.297E-02    0.301E-01
RMM:   3    -0.230778960771E+04   -0.94128E-03   -0.35449E-03  4429   0.184E-02    0.563E-01
RMM:   4    -0.230778771054E+04    0.18972E-02   -0.14225E-03  3720   0.129E-02    0.111E-01
RMM:   5    -0.230778762112E+04    0.89421E-04   -0.34919E-04  3116   0.678E-03    0.606E-02
RMM:   6    -0.230778760300E+04    0.18124E-04   -0.56465E-05  2774   0.452E-03    0.260E-02
RMM:   7    -0.230778759891E+04    0.40850E-05   -0.10115E-05  2610   0.195E-03
  16 F= -.23282989E+04 E0= -.23282989E+04  d E =-.255045E-12  mag=     4.0000
       N       E                     dE             d eps       ncg     rms          rms(c)
DAV:   1    -0.230779879108E+04   -0.11188E-01   -0.12304E+00  4800   0.377E-01    0.484E-01
RMM:   2    -0.230779596143E+04    0.28297E-02   -0.15239E-02  4122   0.328E-02    0.370E-01
RMM:   3    -0.230779725693E+04   -0.12955E-02   -0.48896E-03  4441   0.220E-02    0.657E-01
RMM:   4    -0.230779473223E+04    0.25247E-02   -0.19808E-03  4041   0.151E-02    0.136E-01
RMM:   5    -0.230779465074E+04    0.81485E-04   -0.46234E-04  3262   0.742E-03    0.680E-02
RMM:   6    -0.230779463301E+04    0.17737E-04   -0.77046E-05  2867   0.505E-03    0.329E-02
RMM:   7    -0.230779462671E+04    0.62907E-05   -0.13149E-05  2704   0.215E-03
  17 F= -.23283048E+04 E0= -.23283048E+04  d E =-.129131E-12  mag=     4.0000
       N       E                     dE             d eps       ncg     rms          rms(c)
DAV:   1    -0.230779625129E+04   -0.16183E-02   -0.59898E-01  4480   0.253E-01    0.245E-01
RMM:   2    -0.230779615104E+04    0.10025E-03   -0.33857E-03  3735   0.164E-02    0.168E-01
RMM:   3    -0.230779651495E+04   -0.36391E-03   -0.96985E-04  3726   0.998E-03    0.317E-01
RMM:   4    -0.230779596990E+04    0.54505E-03   -0.55063E-04  3085   0.807E-03    0.819E-02
RMM:   5    -0.230779595789E+04    0.12012E-04   -0.10701E-04  2957   0.441E-03    0.398E-02
RMM:   6    -0.230779594941E+04    0.84806E-05   -0.18750E-05  2614   0.280E-03
  18 F= -.23283067E+04 E0= -.23283067E+04  d E =-.166591E-12  mag=     4.0000
       N       E                     dE             d eps       ncg     rms          rms(c)
DAV:   1    -0.230779596044E+04   -0.25520E-05   -0.11814E+00  4640   0.362E-01    0.345E-01
RMM:   2    -0.230779581328E+04    0.14717E-03   -0.68606E-03  3768   0.230E-02    0.241E-01
RMM:   3    -0.230779701813E+04   -0.12049E-02   -0.24743E-03  4633   0.148E-02    0.523E-01
RMM:   4    -0.230779542196E+04    0.15962E-02   -0.10522E-03  3531   0.111E-02    0.758E-02
RMM:   5    -0.230779541733E+04    0.46311E-05   -0.25737E-04  3091   0.606E-03    0.274E-02
RMM:   6    -0.230779542079E+04   -0.34607E-05   -0.27468E-05  2776   0.327E-03
  19 F= -.23283061E+04 E0= -.23283061E+04  d E =-.150857E-12  mag=     4.0000
       N       E                     dE             d eps       ncg     rms          rms(c)
DAV:   1    -0.230776966566E+04    0.25752E-01   -0.59783E-01  4800   0.266E-01    0.238E-01
RMM:   2    -0.230776955946E+04    0.10620E-03   -0.23229E-03  3511   0.157E-02    0.143E-01
RMM:   3    -0.230776971475E+04   -0.15529E-03   -0.84088E-04  3999   0.934E-03    0.214E-01
RMM:   4    -0.230776944882E+04    0.26593E-03   -0.17309E-04  2751   0.567E-03    0.283E-02
RMM:   5    -0.230776944926E+04   -0.43745E-06   -0.36701E-05  2639   0.249E-03
  20 F= -.23282804E+04 E0= -.23282804E+04  d E =-.166702E-12  mag=     4.0000
       N       E                     dE             d eps       ncg     rms          rms(c)
DAV:   1    -0.230782191707E+04   -0.52468E-01   -0.11976E+00  4800   0.382E-01    0.359E-01
RMM:   2    -0.230782126369E+04    0.65338E-03   -0.63894E-03  3780   0.249E-02    0.223E-01
RMM:   3    -0.230782217423E+04   -0.91054E-03   -0.19416E-03  4157   0.146E-02    0.459E-01
RMM:   4    -0.230782099000E+04    0.11842E-02   -0.12201E-03  3685   0.114E-02    0.105E-01
RMM:   5    -0.230782095244E+04    0.37561E-04   -0.22175E-04  3121   0.606E-03    0.427E-02
RMM:   6    -0.230782094180E+04    0.10635E-04   -0.25568E-05  2760   0.347E-03    0.179E-02
RMM:   7    -0.230782093998E+04    0.18191E-05   -0.70815E-06  2676   0.177E-03
  21 F= -.23283314E+04 E0= -.23283314E+04  d E =-.160673E-12  mag=     4.0000
       N       E                     dE             d eps       ncg     rms          rms(c)
DAV:   1    -0.230780650881E+04    0.14433E-01   -0.61359E-01  4800   0.266E-01    0.265E-01
RMM:   2    -0.230780610698E+04    0.40183E-03   -0.37918E-03  3714   0.186E-02    0.181E-01
RMM:   3    -0.230780666686E+04   -0.55988E-03   -0.13049E-03  3735   0.111E-02    0.369E-01
RMM:   4    -0.230780589776E+04    0.76909E-03   -0.61786E-04  3153   0.878E-03    0.723E-02
RMM:   5    -0.230780588595E+04    0.11815E-04   -0.13428E-04  3023   0.473E-03    0.274E-02
RMM:   6    -0.230780588401E+04    0.19366E-05   -0.16943E-05  2625   0.293E-03
  22 F= -.23283159E+04 E0= -.23283159E+04  d E =-.237375E-12  mag=     4.0000
       N       E                     dE             d eps       ncg     rms          rms(c)
DAV:   1    -0.230777761154E+04    0.28274E-01   -0.12638E+00  5120   0.382E-01    0.570E-01
RMM:   2    -0.230777319909E+04    0.44124E-02   -0.25140E-02  4139   0.420E-02    0.418E-01
RMM:   3    -0.230777480030E+04   -0.16012E-02   -0.67638E-03  4977   0.261E-02    0.771E-01
RMM:   4    -0.230777122028E+04    0.35800E-02   -0.26369E-03  4348   0.171E-02    0.151E-01
RMM:   5    -0.230777107040E+04    0.14988E-03   -0.64688E-04  3388   0.862E-03    0.802E-02
RMM:   6    -0.230777104208E+04    0.28320E-04   -0.10583E-04  2947   0.574E-03    0.382E-02
RMM:   7    -0.230777103341E+04    0.86724E-05   -0.18757E-05  2754   0.249E-03
  23 F= -.23282825E+04 E0= -.23282825E+04  d E =-.121814E-12  mag=     4.0000
       N       E                     dE             d eps       ncg     rms          rms(c)
DAV:   1    -0.230780574499E+04   -0.34703E-01   -0.61784E-01  4960   0.280E-01    0.350E-01
RMM:   2    -0.230780440795E+04    0.13370E-02   -0.83060E-03  3868   0.248E-02    0.293E-01
RMM:   3    -0.230780504525E+04   -0.63730E-03   -0.28502E-03  4555   0.162E-02    0.482E-01
RMM:   4    -0.230780365858E+04    0.13867E-02   -0.99263E-04  3555   0.111E-02    0.868E-02
RMM:   5    -0.230780361443E+04    0.44148E-04   -0.27521E-04  3131   0.614E-03    0.454E-02
RMM:   6    -0.230780360743E+04    0.69975E-05   -0.38424E-05  2743   0.385E-03
  24 F= -.23283143E+04 E0= -.23283143E+04  d E =-.372570E-13  mag=     4.0000
       N       E                     dE             d eps       ncg     rms          rms(c)
DAV:   1    -0.230778892886E+04    0.14686E-01   -0.11840E+00  4480   0.369E-01    0.320E-01
RMM:   2    -0.230778896110E+04   -0.32243E-04   -0.48515E-03  3643   0.213E-02    0.229E-01
RMM:   3    -0.230779024314E+04   -0.12820E-02   -0.23353E-03  4608   0.141E-02    0.514E-01
RMM:   4    -0.230778872365E+04    0.15195E-02   -0.92513E-04  3713   0.110E-02    0.609E-02
RMM:   5    -0.230778872274E+04    0.90917E-06   -0.20216E-04  2945   0.540E-03    0.260E-02
RMM:   6    -0.230778871993E+04    0.28077E-05   -0.16860E-05  2721   0.267E-03
  25 F= -.23282995E+04 E0= -.23282995E+04  d E =-.651659E-12  mag=     4.0000
       N       E                     dE             d eps       ncg     rms          rms(c)
DAV:   1    -0.230773032636E+04    0.58396E-01   -0.60607E-01  4480   0.238E-01    0.254E-01
RMM:   2    -0.230773054861E+04   -0.22225E-03   -0.32999E-03  3804   0.176E-02    0.319E-01
RMM:   3    -0.230773024429E+04    0.30433E-03   -0.10988E-03  3745   0.103E-02    0.236E-01
RMM:   4    -0.230772992781E+04    0.31647E-03   -0.50745E-04  3363   0.719E-03    0.440E-02
RMM:   5    -0.230772993215E+04   -0.43362E-05   -0.41789E-05  2791   0.393E-03
  26 F= -.23282400E+04 E0= -.23282400E+04  d E =-.486781E-13  mag=     4.0000
       N       E                     dE             d eps       ncg     rms          rms(c)
DAV:   1    -0.230786102762E+04   -0.13110E+00   -0.12215E+00  4640   0.192E-01    0.389E-01
RMM:   2    -0.230786062401E+04    0.40360E-03   -0.57006E-03  4066   0.190E-02    0.417E-01
RMM:   3    -0.230786065634E+04   -0.32332E-04   -0.27967E-03  4493   0.150E-02    0.426E-01
RMM:   4    -0.230785955371E+04    0.11026E-02   -0.15855E-03  3877   0.107E-02    0.137E-01
RMM:   5    -0.230785946675E+04    0.86961E-04   -0.14192E-04  2868   0.525E-03    0.367E-02
RMM:   6    -0.230785946194E+04    0.48150E-05   -0.28863E-05  2767   0.268E-03
  27 F= -.23283710E+04 E0= -.23283710E+04  d E =-.481677E-12  mag=     4.0000
       N       E                     dE             d eps       ncg     rms          rms(c)
DAV:   1    -0.230778405899E+04    0.75408E-01   -0.62025E-01  4640   0.142E-01    0.252E-01
RMM:   2    -0.230778369494E+04    0.36406E-03   -0.23316E-03  3580   0.116E-02    0.167E-01
RMM:   3    -0.230778448533E+04   -0.79039E-03   -0.13928E-03  3611   0.988E-03    0.418E-01
RMM:   4    -0.230778346571E+04    0.10196E-02   -0.70397E-04  3091   0.900E-03    0.594E-02
RMM:   5    -0.230778346352E+04    0.21850E-05   -0.16165E-04  2830   0.412E-03    0.189E-02
RMM:   6    -0.230778346145E+04    0.20723E-05   -0.12901E-05  2688   0.238E-03
  28 F= -.23282939E+04 E0= -.23282939E+04  d E =-.227509E-12  mag=     4.0000
       N       E                     dE             d eps       ncg     rms          rms(c)
DAV:   1    -0.230781187066E+04   -0.28407E-01   -0.12205E+00  4640   0.194E-01    0.334E-01
RMM:   2    -0.230781331640E+04   -0.14457E-02   -0.52511E-03  4477   0.198E-02    0.574E-01
RMM:   3    -0.230781152718E+04    0.17892E-02   -0.19376E-03  4122   0.131E-02    0.240E-01
RMM:   4    -0.230781129656E+04    0.23061E-03   -0.93307E-04  3472   0.935E-03    0.924E-02
RMM:   5    -0.230781126597E+04    0.30597E-04   -0.14327E-04  2897   0.577E-03    0.500E-02
RMM:   6    -0.230781125304E+04    0.12924E-04   -0.22888E-05  2793   0.281E-03    0.875E-03
RMM:   7    -0.230781125246E+04    0.58260E-06   -0.39991E-06  2575   0.162E-03
  29 F= -.23283223E+04 E0= -.23283223E+04  d E =-.876303E-13  mag=     4.0000
       N       E                     dE             d eps       ncg     rms          rms(c)
DAV:   1    -0.230781476833E+04   -0.35153E-02   -0.62650E-01  4480   0.145E-01    0.378E-01
RMM:   2    -0.230782144596E+04   -0.66776E-02   -0.12372E-02  5031   0.290E-02    0.113E+00
RMM:   3    -0.230781373880E+04    0.77072E-02   -0.43417E-03  4786   0.208E-02    0.147E-01
RMM:   4    -0.230781364318E+04    0.95622E-04   -0.10978E-03  3365   0.941E-03    0.116E-01
RMM:   5    -0.230781356010E+04    0.83076E-04   -0.15991E-04  2870   0.505E-03    0.552E-02
RMM:   6    -0.230781354668E+04    0.13420E-04   -0.23609E-05  2748   0.265E-03    0.117E-02
RMM:   7    -0.230781354689E+04   -0.20601E-06   -0.48901E-06  2536   0.153E-03
  30 F= -.23283246E+04 E0= -.23283246E+04  d E =-.231675E-12  mag=     4.0000
       N       E                     dE             d eps       ncg     rms          rms(c)
DAV:   1    -0.230777559783E+04    0.37949E-01   -0.12496E+00  4640   0.206E-01    0.614E-01
RMM:   2    -0.230779064017E+04   -0.15042E-01   -0.30016E-02  5264   0.447E-02    0.174E+00
RMM:   3    -0.230777224567E+04    0.18395E-01   -0.10701E-02  5264   0.324E-02    0.241E-01
RMM:   4    -0.230777174688E+04    0.49879E-03   -0.27599E-03  4009   0.138E-02    0.167E-01
RMM:   5    -0.230777157050E+04    0.17638E-03   -0.39260E-04  3063   0.699E-03    0.934E-02
RMM:   6    -0.230777153895E+04    0.31551E-04   -0.57888E-05  2881   0.387E-03    0.250E-02
RMM:   7    -0.230777154141E+04   -0.24654E-05   -0.16757E-05  2729   0.224E-03
  31 F= -.23282821E+04 E0= -.23282821E+04  d E =-.855838E-13  mag=     4.0000
