       N       E                     dE             d eps       ncg     rms          rms(c)
DAV:   1     0.124578100106E+05    0.12458E+05   -0.81711E+05  4392   0.143E+03
DAV:   2    -0.107812243103E+04   -0.13536E+05   -0.12995E+05  5320   0.329E+02
DAV:   3    -0.245944035392E+04   -0.13813E+04   -0.13702E+04  5232   0.109E+02
DAV:   4    -0.249746379018E+04   -0.38023E+02   -0.37844E+02  6264   0.252E+01
DAV:   5    -0.249823730532E+04   -0.77352E+00   -0.77246E+00  5432   0.291E+00    0.170E+02
RMM:   6    -0.145965909886E+04    0.10386E+04   -0.19161E+03  4330   0.388E+01    0.725E+01
RMM:   7    -0.163376015730E+04   -0.17410E+03   -0.27051E+02  4916   0.138E+01    0.526E+01
RMM:   8    -0.168038057718E+04   -0.46620E+02   -0.70102E+01  4996   0.821E+00    0.382E+01
RMM:   9    -0.179711645532E+04   -0.11674E+03   -0.58386E+01  4545   0.791E+00    0.258E+01
RMM:  10    -0.194189189541E+04   -0.14478E+03   -0.56477E+01  4727   0.721E+00    0.171E+01
RMM:  11    -0.206665375997E+04   -0.12476E+03   -0.67811E+01  4540   0.633E+00    0.130E+01
RMM:  12    -0.222825206084E+04   -0.16160E+03   -0.15907E+02  4370   0.872E+00    0.769E+00
RMM:  13    -0.226657155156E+04   -0.38319E+02   -0.35458E+01  4458   0.466E+00    0.499E+00
RMM:  14    -0.228384309977E+04   -0.17272E+02   -0.18723E+01  4443   0.323E+00    0.250E+00
RMM:  15    -0.228866638186E+04   -0.48233E+01   -0.50824E+00  4618   0.194E+00    0.166E+00
RMM:  16    -0.228981508011E+04   -0.11487E+01   -0.10373E+00  5002   0.654E-01    0.103E+00
RMM:  17    -0.229049126552E+04   -0.67619E+00   -0.32198E-01  4879   0.446E-01    0.453E-01
RMM:  18    -0.229054903395E+04   -0.57768E-01   -0.59299E-02  4817   0.212E-01    0.259E-01
RMM:  19    -0.229056856809E+04   -0.19534E-01   -0.15085E-02  4562   0.946E-02    0.166E-01
RMM:  20    -0.229058700887E+04   -0.18441E-01   -0.90010E-03  4400   0.737E-02    0.120E-01
RMM:  21    -0.229060050086E+04   -0.13492E-01   -0.66029E-03  4453   0.602E-02    0.784E-02
RMM:  22    -0.229061077032E+04   -0.10269E-01   -0.61062E-03  4416   0.538E-02    0.502E-02
RMM:  23    -0.229061421111E+04   -0.34408E-02   -0.22851E-03  4659   0.390E-02    0.324E-02
RMM:  24    -0.229061601413E+04   -0.18030E-02   -0.12591E-03  4130   0.199E-02    0.196E-02
RMM:  25    -0.229061657762E+04   -0.56349E-03   -0.32196E-04  3896   0.161E-02    0.128E-02
RMM:  26    -0.229061679973E+04   -0.22211E-03   -0.11912E-04  3564   0.703E-03    0.717E-03
RMM:  27    -0.229061691441E+04   -0.11468E-03   -0.39481E-05  3098   0.596E-03    0.401E-03
RMM:  28    -0.229061697357E+04   -0.59154E-04   -0.21822E-05  2942   0.355E-03    0.236E-03
RMM:  29    -0.229061698703E+04   -0.13460E-04   -0.69984E-06  2781   0.313E-03    0.138E-03
RMM:  30    -0.229061699048E+04   -0.34537E-05   -0.37199E-06  2434   0.199E-03
   1 F= -.23104535E+04 E0= -.23104535E+04  d E =-.231045E+04  mag=     0.9999
