       N       E                     dE             d eps       ncg     rms          rms(c)
DAV:   1     0.126838990466E+05    0.12684E+05   -0.82789E+05  4432   0.143E+03
DAV:   2    -0.106839030191E+04   -0.13752E+05   -0.13179E+05  5312   0.329E+02
DAV:   3    -0.247003308099E+04   -0.14016E+04   -0.13886E+04  5352   0.111E+02
DAV:   4    -0.251627360385E+04   -0.46241E+02   -0.46010E+02  6672   0.300E+01
DAV:   5    -0.251720243249E+04   -0.92883E+00   -0.92729E+00  5560   0.330E+00    0.170E+02
RMM:   6    -0.147886307244E+04    0.10383E+04   -0.19449E+03  4389   0.388E+01    0.740E+01
RMM:   7    -0.165750729316E+04   -0.17864E+03   -0.29927E+02  4963   0.139E+01    0.542E+01
RMM:   8    -0.168733938562E+04   -0.29832E+02   -0.60185E+01  5050   0.781E+00    0.383E+01
RMM:   9    -0.181491767219E+04   -0.12758E+03   -0.72120E+01  4710   0.791E+00    0.375E+01
RMM:  10    -0.190870539988E+04   -0.93788E+02   -0.47603E+01  5125   0.650E+00    0.208E+01
RMM:  11    -0.203810891732E+04   -0.12940E+03   -0.58541E+01  4827   0.602E+00    0.180E+01
RMM:  12    -0.211643489314E+04   -0.78326E+02   -0.38273E+01  4762   0.475E+00    0.146E+01
RMM:  13    -0.221922040865E+04   -0.10279E+03   -0.72105E+01  4429   0.626E+00    0.981E+00
RMM:  14    -0.228112882104E+04   -0.61908E+02   -0.52624E+01  4691   0.538E+00    0.673E+00
RMM:  15    -0.229324810531E+04   -0.12119E+02   -0.11935E+01  4827   0.310E+00    0.493E+00
RMM:  16    -0.230437240715E+04   -0.11124E+02   -0.95426E+00  4406   0.199E+00    0.301E+00
RMM:  17    -0.230851257163E+04   -0.41402E+01   -0.29367E+00  4446   0.149E+00    0.256E+00
RMM:  18    -0.231063545529E+04   -0.21229E+01   -0.16728E+00  4656   0.677E-01    0.129E+00
RMM:  19    -0.231117020710E+04   -0.53475E+00   -0.55176E-01  4532   0.512E-01    0.593E-01
RMM:  20    -0.231137637858E+04   -0.20617E+00   -0.23121E-01  4553   0.265E-01    0.432E-01
RMM:  21    -0.231141581141E+04   -0.39433E-01   -0.44254E-02  4655   0.172E-01    0.215E-01
RMM:  22    -0.231144186956E+04   -0.26058E-01   -0.17465E-02  4413   0.870E-02    0.133E-01
RMM:  23    -0.231145364066E+04   -0.11771E-01   -0.53142E-03  4504   0.700E-02    0.726E-02
RMM:  24    -0.231146286635E+04   -0.92257E-02   -0.30073E-03  4417   0.420E-02    0.485E-02
RMM:  25    -0.231146851627E+04   -0.56499E-02   -0.15724E-03  4439   0.354E-02    0.295E-02
RMM:  26    -0.231147222222E+04   -0.37060E-02   -0.12868E-03  4318   0.246E-02    0.175E-02
RMM:  27    -0.231147318890E+04   -0.96667E-03   -0.35976E-04  3949   0.212E-02    0.102E-02
RMM:  28    -0.231147359338E+04   -0.40448E-03   -0.17911E-04  3762   0.932E-03    0.578E-03
RMM:  29    -0.231147372812E+04   -0.13474E-03   -0.42103E-05  3374   0.860E-03    0.347E-03
RMM:  30    -0.231147380116E+04   -0.73035E-04   -0.21761E-05  3085   0.380E-03    0.256E-03
RMM:  31    -0.231147382882E+04   -0.27662E-04   -0.71345E-06  2807   0.343E-03    0.148E-03
RMM:  32    -0.231147384093E+04   -0.12110E-04   -0.42614E-06  2434   0.221E-03    0.806E-04
RMM:  33    -0.231147384356E+04   -0.26308E-05   -0.21427E-06  2390   0.195E-03
   1 F= -.23318872E+04 E0= -.23318872E+04  d E =-.233189E+04  mag=     5.0000
       N       E                     dE             d eps       ncg     rms          rms(c)
DAV:   1    -0.231166298139E+04   -0.18914E+00   -0.39653E+01  4784   0.351E+00    0.215E+00
RMM:   2    -0.231230331026E+04   -0.64033E+00   -0.59937E+00  6177   0.933E-01    0.273E+00
RMM:   3    -0.231224227654E+04    0.61034E-01   -0.59128E-01  5347   0.345E-01    0.114E+00
RMM:   4    -0.231223836988E+04    0.39067E-02   -0.86398E-02  5323   0.902E-02    0.626E-01
RMM:   5    -0.231223460227E+04    0.37676E-02   -0.13274E-02  4989   0.506E-02    0.383E-01
RMM:   6    -0.231223371881E+04    0.88346E-03   -0.76651E-03  5077   0.459E-02    0.167E-01
RMM:   7    -0.231223403102E+04   -0.31222E-03   -0.12285E-03  4568   0.253E-02    0.748E-02
RMM:   8    -0.231223427219E+04   -0.24116E-03   -0.39856E-04  4116   0.119E-02    0.320E-02
RMM:   9    -0.231223444029E+04   -0.16810E-03   -0.10525E-04  3546   0.805E-03    0.184E-02
RMM:  10    -0.231223455307E+04   -0.11278E-03   -0.42316E-05  3226   0.532E-03    0.113E-02
RMM:  11    -0.231223461897E+04   -0.65901E-04   -0.18531E-05  2876   0.487E-03    0.757E-03
RMM:  12    -0.231223465636E+04   -0.37388E-04   -0.13265E-05  2855   0.392E-03    0.467E-03
RMM:  13    -0.231223467456E+04   -0.18198E-04   -0.77173E-06  2813   0.356E-03    0.282E-03
RMM:  14    -0.231223468141E+04   -0.68565E-05   -0.44561E-06  2775   0.263E-03
   2 F= -.23326460E+04 E0= -.23326460E+04  d E =-.758732E+00  mag=     5.0000
       N       E                     dE             d eps       ncg     rms          rms(c)
DAV:   1    -0.231141022015E+04    0.82445E+00   -0.80044E+01  4496   0.514E+00    0.278E+00
RMM:   2    -0.231264955805E+04   -0.12393E+01   -0.12348E+01  6220   0.150E+00    0.258E+00
RMM:   3    -0.231266318422E+04   -0.13626E-01   -0.13354E+00  5093   0.593E-01    0.157E+00
RMM:   4    -0.231265663005E+04    0.65542E-02   -0.15242E-01  5305   0.125E-01    0.852E-01
RMM:   5    -0.231264891794E+04    0.77121E-02   -0.36262E-02  5113   0.865E-02    0.460E-01
RMM:   6    -0.231264804763E+04    0.87031E-03   -0.11166E-02  5226   0.618E-02    0.191E-01
RMM:   7    -0.231264813620E+04   -0.88573E-04   -0.19129E-03  5009   0.279E-02    0.122E-01
RMM:   8    -0.231264840117E+04   -0.26497E-03   -0.77466E-04  4475   0.145E-02    0.596E-02
RMM:   9    -0.231264861107E+04   -0.20990E-03   -0.23067E-04  4009   0.108E-02    0.295E-02
RMM:  10    -0.231264876195E+04   -0.15087E-03   -0.98190E-05  3683   0.710E-03    0.158E-02
RMM:  11    -0.231264883063E+04   -0.68684E-04   -0.27809E-05  2969   0.603E-03    0.107E-02
RMM:  12    -0.231264888142E+04   -0.50791E-04   -0.24349E-05  3029   0.461E-03    0.709E-03
RMM:  13    -0.231264890662E+04   -0.25199E-04   -0.11849E-05  2823   0.442E-03    0.400E-03
RMM:  14    -0.231264891728E+04   -0.10661E-04   -0.70845E-06  2814   0.321E-03    0.301E-03
RMM:  15    -0.231264892254E+04   -0.52589E-05   -0.35737E-06  2744   0.264E-03
   3 F= -.23330578E+04 E0= -.23330578E+04  d E =-.117060E+01  mag=     5.0000
       N       E                     dE             d eps       ncg     rms          rms(c)
DAV:   1    -0.231261536039E+04    0.33557E-01   -0.28860E+00  4576   0.105E+00    0.510E-01
RMM:   2    -0.231265582531E+04   -0.40465E-01   -0.41899E-01  5900   0.264E-01    0.313E-01
RMM:   3    -0.231265999760E+04   -0.41723E-02   -0.57214E-02  4970   0.152E-01    0.281E-01
RMM:   4    -0.231265975865E+04    0.23895E-03   -0.44493E-03  4726   0.225E-02    0.183E-01
RMM:   5    -0.231265936692E+04    0.39174E-03   -0.76872E-04  4460   0.136E-02    0.988E-02
RMM:   6    -0.231265924479E+04    0.12213E-03   -0.39440E-04  4330   0.117E-02    0.383E-02
RMM:   7    -0.231265923128E+04    0.13509E-04   -0.61818E-05  3045   0.709E-03    0.171E-02
RMM:   8    -0.231265923089E+04    0.39401E-06   -0.28758E-05  2906   0.436E-03
   4 F= -.23330685E+04 E0= -.23330685E+04  d E =-.118131E+01  mag=     5.0000
       N       E                     dE             d eps       ncg     rms          rms(c)
DAV:   1    -0.231272310925E+04   -0.63878E-01   -0.36716E+01  4448   0.530E+00    0.231E+00
RMM:   2    -0.231289709803E+04   -0.17399E+00   -0.20675E+00  5719   0.974E-01    0.999E-01
RMM:   3    -0.231289041940E+04    0.66786E-02   -0.18155E-01  4835   0.365E-01    0.672E-01
RMM:   4    -0.231288859376E+04    0.18256E-02   -0.38126E-02  5287   0.128E-01    0.730E-01
RMM:   5    -0.231288335128E+04    0.52425E-02   -0.15490E-02  5286   0.930E-02    0.213E-01
RMM:   6    -0.231288283340E+04    0.51788E-03   -0.22646E-03  5251   0.355E-02    0.936E-02
RMM:   7    -0.231288260546E+04    0.22794E-03   -0.73179E-04  4600   0.213E-02    0.524E-02
RMM:   8    -0.231288252197E+04    0.83487E-04   -0.23127E-04  4473   0.133E-02    0.269E-02
RMM:   9    -0.231288250168E+04    0.20294E-04   -0.97280E-05  3931   0.959E-03    0.159E-02
RMM:  10    -0.231288249893E+04    0.27482E-05   -0.33078E-05  3132   0.656E-03
   5 F= -.23332911E+04 E0= -.23332910E+04  d E =-.222513E+00  mag=     4.9997
       N       E                     dE             d eps       ncg     rms          rms(c)
DAV:   1    -0.231288558703E+04   -0.30854E-02   -0.75026E-01  4816   0.758E-01    0.332E-01
RMM:   2    -0.231288919897E+04   -0.36119E-02   -0.43048E-02  5771   0.144E-01    0.144E-01
RMM:   3    -0.231288912162E+04    0.77358E-04   -0.41769E-03  4728   0.550E-02    0.889E-02
RMM:   4    -0.231288906468E+04    0.56931E-04   -0.81412E-04  4939   0.195E-02    0.685E-02
RMM:   5    -0.231288902927E+04    0.35417E-04   -0.25031E-04  4439   0.127E-02    0.643E-02
RMM:   6    -0.231288899172E+04    0.37549E-04   -0.52032E-05  3032   0.550E-03    0.128E-02
RMM:   7    -0.231288898744E+04    0.42776E-05   -0.12579E-05  2871   0.407E-03
   6 F= -.23332976E+04 E0= -.23332976E+04  d E =-.229104E+00  mag=     4.9999
       N       E                     dE             d eps       ncg     rms          rms(c)
DAV:   1    -0.231293653726E+04   -0.47546E-01   -0.25333E+01  4436   0.315E+00    0.120E+00
RMM:   2    -0.231310287235E+04   -0.16634E+00   -0.17498E+00  6014   0.648E-01    0.806E-01
RMM:   3    -0.231311266303E+04   -0.97907E-02   -0.16688E-01  5336   0.201E-01    0.628E-01
RMM:   4    -0.231311185972E+04    0.80331E-03   -0.20347E-02  5405   0.610E-02    0.526E-01
RMM:   5    -0.231310954587E+04    0.23139E-02   -0.10941E-02  5373   0.513E-02    0.214E-01
RMM:   6    -0.231310924434E+04    0.30152E-03   -0.12571E-03  4716   0.247E-02    0.788E-02
RMM:   7    -0.231310919992E+04    0.44420E-04   -0.29922E-04  4003   0.936E-03    0.487E-02
RMM:   8    -0.231310918649E+04    0.13430E-04   -0.10167E-04  3141   0.755E-03    0.302E-02
RMM:   9    -0.231310918799E+04   -0.14973E-05   -0.38969E-05  2949   0.489E-03
   7 F= -.23335173E+04 E0= -.23335173E+04  d E =-.219696E+00  mag=     4.9997
       N       E                     dE             d eps       ncg     rms          rms(c)
DAV:   1    -0.231310981273E+04   -0.62624E-03   -0.68118E-01  4760   0.498E-01    0.200E-01
RMM:   2    -0.231311398608E+04   -0.41733E-02   -0.44464E-02  6071   0.102E-01    0.140E-01
RMM:   3    -0.231311421650E+04   -0.23043E-03   -0.41986E-03  4567   0.333E-02    0.106E-01
RMM:   4    -0.231311418229E+04    0.34210E-04   -0.60324E-04  3424   0.106E-02    0.794E-02
RMM:   5    -0.231311414465E+04    0.37639E-04   -0.36281E-04  3806   0.103E-02    0.434E-02
RMM:   6    -0.231311412775E+04    0.16903E-04   -0.40997E-05  2896   0.616E-03    0.220E-02
RMM:   7    -0.231311412571E+04    0.20383E-05   -0.15579E-05  2848   0.277E-03
   8 F= -.23335222E+04 E0= -.23335222E+04  d E =-.224583E+00  mag=     4.9998
       N       E                     dE             d eps       ncg     rms          rms(c)
DAV:   1    -0.231312359642E+04   -0.94687E-02   -0.15670E+01  4480   0.368E+00    0.153E+00
RMM:   2    -0.231321877344E+04   -0.95177E-01   -0.10606E+00  5746   0.672E-01    0.966E-01
RMM:   3    -0.231322726662E+04   -0.84932E-02   -0.11358E-01  5273   0.261E-01    0.113E+00
RMM:   4    -0.231321471243E+04    0.12554E-01   -0.16606E-02  5443   0.788E-02    0.321E-01
RMM:   5    -0.231321342682E+04    0.12856E-02   -0.66083E-03  4890   0.563E-02    0.177E-01
RMM:   6    -0.231321309828E+04    0.32854E-03   -0.16934E-03  5008   0.328E-02    0.874E-02
RMM:   7    -0.231321301515E+04    0.83125E-04   -0.43771E-04  4663   0.197E-02    0.524E-02
RMM:   8    -0.231321295547E+04    0.59680E-04   -0.13766E-04  4300   0.889E-03    0.321E-02
RMM:   9    -0.231321294231E+04    0.13166E-04   -0.61080E-05  3333   0.756E-03    0.259E-02
RMM:  10    -0.231321293858E+04    0.37271E-05   -0.32683E-05  3010   0.542E-03
   9 F= -.23336218E+04 E0= -.23336214E+04  d E =-.995435E-01  mag=     4.9919
       N       E                     dE             d eps       ncg     rms          rms(c)
DAV:   1    -0.231321321530E+04   -0.27299E-03   -0.11261E-01  5192   0.311E-01    0.131E-01
RMM:   2    -0.231321390036E+04   -0.68507E-03   -0.77295E-03  5887   0.594E-02    0.707E-02
RMM:   3    -0.231321394502E+04   -0.44658E-04   -0.80260E-04  4097   0.241E-02    0.810E-02
RMM:   4    -0.231321388469E+04    0.60330E-04   -0.10869E-04  3100   0.730E-03    0.286E-02
RMM:   5    -0.231321387157E+04    0.13125E-04   -0.54152E-05  3293   0.627E-03    0.106E-02
RMM:   6    -0.231321387061E+04    0.96209E-06   -0.12084E-05  2859   0.505E-03
  10 F= -.23336226E+04 E0= -.23336223E+04  d E =-.100410E+00  mag=     4.9935
       N       E                     dE             d eps       ncg     rms          rms(c)
DAV:   1    -0.231320219088E+04    0.11681E-01   -0.73195E+00  4448   0.234E+00    0.103E+00
RMM:   2    -0.231326000024E+04   -0.57809E-01   -0.64636E-01  5756   0.473E-01    0.529E-01
RMM:   3    -0.231326308235E+04   -0.30821E-02   -0.61961E-02  5058   0.178E-01    0.460E-01
RMM:   4    -0.231326415244E+04   -0.10701E-02   -0.10274E-02  5359   0.508E-02    0.931E-01
RMM:   5    -0.231326108399E+04    0.30684E-02   -0.38569E-03  4825   0.360E-02    0.199E-01
RMM:   6    -0.231326070127E+04    0.38272E-03   -0.15708E-03  4837   0.283E-02    0.104E-01
RMM:   7    -0.231326081343E+04   -0.11217E-03   -0.26470E-04  4547   0.139E-02    0.129E-01
RMM:   8    -0.231326082964E+04   -0.16210E-04   -0.88747E-05  3444   0.742E-03    0.426E-02
RMM:   9    -0.231326090933E+04   -0.79689E-04   -0.64530E-05  3359   0.617E-03    0.447E-02
RMM:  10    -0.231326096508E+04   -0.55747E-04   -0.33157E-05  2900   0.525E-03    0.585E-02
RMM:  11    -0.231326100985E+04   -0.44767E-04   -0.41913E-05  2899   0.497E-03    0.596E-02
RMM:  12    -0.231326105817E+04   -0.48323E-04   -0.97887E-05  3107   0.593E-03    0.309E-02
RMM:  13    -0.231326108600E+04   -0.27836E-04   -0.59114E-05  2907   0.526E-03    0.164E-02
RMM:  14    -0.231326110052E+04   -0.14518E-04   -0.31854E-05  2873   0.394E-03    0.170E-02
RMM:  15    -0.231326111160E+04   -0.11082E-04   -0.48216E-05  2859   0.410E-03    0.199E-02
RMM:  16    -0.231326111511E+04   -0.35053E-05   -0.27133E-05  2739   0.344E-03
  11 F= -.23336710E+04 E0= -.23336643E+04  d E =-.483854E-01  mag=     4.7696
       N       E                     dE             d eps       ncg     rms          rms(c)
DAV:   1    -0.231326110338E+04    0.82255E-05   -0.13654E-03  4898   0.313E-02    0.440E-02
RMM:   2    -0.231326120050E+04   -0.97117E-04   -0.27173E-04  3163   0.805E-03    0.148E-01
RMM:   3    -0.231326113419E+04    0.66306E-04   -0.94605E-05  2859   0.524E-03    0.735E-02
RMM:   4    -0.231326113442E+04   -0.23200E-06   -0.10263E-05  2799   0.195E-03
  12 F= -.23336711E+04 E0= -.23336638E+04  d E =-.484199E-01  mag=     4.7692
       N       E                     dE             d eps       ncg     rms          rms(c)
DAV:   1    -0.231324495558E+04    0.16179E-01   -0.40425E+00  4432   0.163E+00    0.144E+00
RMM:   2    -0.231334887192E+04   -0.10392E+00   -0.56533E-01  5895   0.340E-01    0.332E+00
RMM:   3    -0.231332734069E+04    0.21531E-01   -0.10365E-01  5354   0.142E-01    0.442E+00
RMM:   4    -0.231332430980E+04    0.30309E-02   -0.14576E-02  4910   0.420E-02    0.412E+00
RMM:   5    -0.231329750546E+04    0.26804E-01   -0.14229E-02  4629   0.459E-02    0.597E-01
RMM:   6    -0.231330032860E+04   -0.28231E-02   -0.75620E-03  4893   0.435E-02    0.194E+00
RMM:   7    -0.231330795549E+04   -0.76269E-02   -0.31644E-03  4850   0.248E-02    0.273E+00
RMM:   8    -0.231330681366E+04    0.11418E-02   -0.13183E-03  3889   0.188E-02    0.272E+00
RMM:   9    -0.231330051654E+04    0.62971E-02   -0.74106E-03  4420   0.325E-02    0.221E+00
RMM:  10    -0.231329844676E+04    0.20698E-02   -0.13781E-03  3756   0.191E-02    0.194E+00
RMM:  11    -0.231329862277E+04   -0.17601E-03   -0.24937E-04  2958   0.681E-03    0.195E+00
RMM:  12    -0.231329719714E+04    0.14256E-02   -0.12213E-03  4047   0.137E-02    0.179E+00
RMM:  13    -0.231329238343E+04    0.48137E-02   -0.11562E-02  4457   0.397E-02    0.129E+00
RMM:  14    -0.231329185850E+04    0.52493E-03   -0.15448E-03  3751   0.221E-02    0.131E+00
RMM:  15    -0.231328953486E+04    0.23236E-02   -0.21259E-03  3987   0.144E-02    0.100E+00
RMM:  16    -0.231328360491E+04    0.59300E-02   -0.13054E-02  4443   0.394E-02    0.703E-01
RMM:  17    -0.231327991974E+04    0.36852E-02   -0.92091E-03  4702   0.373E-02    0.937E-01
RMM:  18    -0.231328402105E+04   -0.41013E-02   -0.39323E-03  4289   0.235E-02    0.699E-01
RMM:  19    -0.231328313502E+04    0.88603E-03   -0.29180E-04  3358   0.108E-02    0.605E-01
RMM:  20    -0.231328546654E+04   -0.23315E-02   -0.38917E-03  4223   0.216E-02    0.435E-01
RMM:  21    -0.231328561098E+04   -0.14444E-03   -0.42840E-04  3137   0.112E-02    0.418E-01
RMM:  22    -0.231328534162E+04    0.26937E-03   -0.88470E-05  2850   0.431E-03    0.417E-01
RMM:  23    -0.231328506377E+04    0.27784E-03   -0.21850E-04  2950   0.558E-03    0.422E-01
RMM:  24    -0.231328514059E+04   -0.76815E-04   -0.51894E-05  2617   0.328E-03    0.411E-01
RMM:  25    -0.231328611865E+04   -0.97806E-03   -0.75960E-04  3430   0.940E-03    0.367E-01
RMM:  26    -0.231328728002E+04   -0.11614E-02   -0.11791E-03  3830   0.127E-02    0.352E-01
RMM:  27    -0.231328953240E+04   -0.22524E-02   -0.41522E-03  4307   0.230E-02    0.443E-01
RMM:  28    -0.231329028266E+04   -0.75026E-03   -0.12050E-03  3677   0.162E-02    0.464E-01
RMM:  29    -0.231328824266E+04    0.20400E-02   -0.32454E-03  3977   0.208E-02    0.392E-01
RMM:  30    -0.231328667356E+04    0.15691E-02   -0.33434E-03  4183   0.214E-02    0.490E-01
RMM:  31    -0.231327774733E+04    0.89262E-02   -0.34469E-02  4542   0.637E-02    0.127E+00
RMM:  32    -0.231327973828E+04   -0.19910E-02   -0.21889E-03  3759   0.284E-02    0.112E+00
RMM:  33    -0.231328102795E+04   -0.12897E-02   -0.62612E-04  3484   0.973E-03    0.989E-01
RMM:  34    -0.231328304663E+04   -0.20187E-02   -0.15054E-03  3909   0.148E-02    0.776E-01
RMM:  35    -0.231328504355E+04   -0.19969E-02   -0.30470E-03  4405   0.206E-02    0.686E-01
RMM:  36    -0.231328645765E+04   -0.14141E-02   -0.21363E-03  4167   0.174E-02    0.621E-01
RMM:  37    -0.231328640093E+04    0.56719E-04   -0.16188E-04  2981   0.652E-03    0.616E-01
RMM:  38    -0.231328627591E+04    0.12502E-03   -0.18063E-05  2700   0.284E-03    0.619E-01
RMM:  39    -0.231328620386E+04    0.72053E-04   -0.98403E-06  2502   0.194E-03    0.605E-01
RMM:  40    -0.231328644876E+04   -0.24490E-03   -0.29468E-04  3237   0.631E-03    0.523E-01
RMM:  41    -0.231328703366E+04   -0.58490E-03   -0.10038E-03  3977   0.115E-02    0.457E-01
RMM:  42    -0.231328819529E+04   -0.11616E-02   -0.14058E-03  4031   0.139E-02    0.373E-01
RMM:  43    -0.231328892872E+04   -0.73343E-03   -0.11999E-03  3900   0.129E-02    0.396E-01
RMM:  44    -0.231328755043E+04    0.13783E-02   -0.18654E-03  3962   0.159E-02    0.381E-01
RMM:  45    -0.231328569791E+04    0.18525E-02   -0.34947E-03  4288   0.216E-02    0.455E-01
RMM:  46    -0.231328603332E+04   -0.33541E-03   -0.18863E-04  3056   0.101E-02    0.457E-01
RMM:  47    -0.231328581162E+04    0.22171E-03   -0.95446E-05  2833   0.350E-03    0.475E-01
RMM:  48    -0.231328610525E+04   -0.29363E-03   -0.67158E-05  2743   0.363E-03    0.457E-01
RMM:  49    -0.231328710800E+04   -0.10027E-02   -0.10299E-03  3658   0.113E-02    0.453E-01
RMM:  50    -0.231329022260E+04   -0.31146E-02   -0.91377E-03  4435   0.342E-02    0.452E-01
RMM:  51    -0.231328989189E+04    0.33071E-03   -0.60932E-04  3431   0.162E-02    0.434E-01
RMM:  52    -0.231329212648E+04   -0.22346E-02   -0.31576E-03  4240   0.182E-02    0.442E-01
RMM:  53    -0.231329144688E+04    0.67960E-03   -0.28551E-04  3110   0.102E-02    0.393E-01
RMM:  54    -0.231329088111E+04    0.56576E-03   -0.22440E-04  3034   0.613E-03    0.409E-01
RMM:  55    -0.231329068144E+04    0.19967E-03   -0.48533E-05  2715   0.394E-03    0.402E-01
RMM:  56    -0.231329054239E+04    0.13905E-03   -0.20292E-05  2595   0.255E-03    0.386E-01
RMM:  57    -0.231329100087E+04   -0.45848E-03   -0.84455E-05  2698   0.375E-03    0.400E-01
RMM:  58    -0.231329086176E+04    0.13911E-03   -0.16666E-05  2441   0.225E-03    0.409E-01
RMM:  59    -0.231329153628E+04   -0.67453E-03   -0.17415E-04  2902   0.481E-03    0.412E-01
RMM:  60    -0.231329028618E+04    0.12501E-02   -0.19683E-03  3987   0.161E-02    0.409E-01
RMM:  61    -0.231328880475E+04    0.14814E-02   -0.57729E-03  4495   0.276E-02    0.436E-01
RMM:  62    -0.231328744095E+04    0.13638E-02   -0.97609E-03  4565   0.348E-02    0.613E-01
RMM:  63    -0.231328627161E+04    0.11693E-02   -0.43789E-03  4396   0.249E-02    0.772E-01
RMM:  64    -0.231328659453E+04   -0.32292E-03   -0.34377E-04  3117   0.812E-03    0.735E-01
RMM:  65    -0.231328775965E+04   -0.11651E-02   -0.19334E-03  4006   0.164E-02    0.581E-01
RMM:  66    -0.231328803569E+04   -0.27603E-03   -0.37399E-04  3054   0.973E-03    0.559E-01
RMM:  67    -0.231328890354E+04   -0.86785E-03   -0.75332E-04  3658   0.980E-03    0.639E-01
RMM:  68    -0.231328871907E+04    0.18447E-03   -0.62818E-05  2805   0.599E-03    0.632E-01
RMM:  69    -0.231328794046E+04    0.77861E-03   -0.72695E-04  3679   0.984E-03    0.710E-01
RMM:  70    -0.231328747776E+04    0.46270E-03   -0.38631E-04  3073   0.826E-03    0.759E-01
RMM:  71    -0.231328749771E+04   -0.19946E-04   -0.59973E-05  2614   0.379E-03    0.761E-01
RMM:  72    -0.231329007623E+04   -0.25785E-02   -0.40547E-03  4206   0.224E-02    0.764E-01
RMM:  73    -0.231328878208E+04    0.12941E-02   -0.12847E-03  4276   0.153E-02    0.859E-01
RMM:  74    -0.231328857311E+04    0.20897E-03   -0.13596E-04  2839   0.622E-03    0.878E-01
RMM:  75    -0.231328863182E+04   -0.58710E-04   -0.74570E-05  2625   0.370E-03    0.822E-01
RMM:  76    -0.231328831642E+04    0.31540E-03   -0.20291E-04  3052   0.534E-03    0.856E-01
RMM:  77    -0.231329206521E+04   -0.37488E-02   -0.21993E-02  4407   0.510E-02    0.675E-01
RMM:  78    -0.231329026491E+04    0.18003E-02   -0.24496E-03  4303   0.245E-02    0.688E-01
RMM:  79    -0.231328902345E+04    0.12415E-02   -0.23314E-03  3997   0.168E-02    0.772E-01
RMM:  80    -0.231328818550E+04    0.83795E-03   -0.12114E-03  3661   0.144E-02    0.841E-01
RMM:  81    -0.231328844395E+04   -0.25845E-03   -0.11134E-04  2903   0.551E-03    0.828E-01
RMM:  82    -0.231328712649E+04    0.13175E-02   -0.16891E-03  4094   0.145E-02    0.781E-01
RMM:  83    -0.231328662208E+04    0.50441E-03   -0.67094E-04  3422   0.116E-02    0.815E-01
RMM:  84    -0.231328705140E+04   -0.42932E-03   -0.15525E-04  2934   0.585E-03    0.773E-01
RMM:  85    -0.231328734562E+04   -0.29422E-03   -0.16857E-04  2933   0.513E-03    0.723E-01
RMM:  86    -0.231328653691E+04    0.80871E-03   -0.51060E-04  3076   0.792E-03    0.637E-01
RMM:  87    -0.231328338785E+04    0.31491E-02   -0.78549E-03  4450   0.315E-02    0.865E-01
RMM:  88    -0.231328346166E+04   -0.73806E-04   -0.59081E-04  3388   0.156E-02    0.877E-01
RMM:  89    -0.231328356383E+04   -0.10217E-03   -0.90496E-05  2860   0.344E-03    0.862E-01
RMM:  90    -0.231328431749E+04   -0.75366E-03   -0.83525E-04  3607   0.103E-02    0.807E-01
RMM:  91    -0.231328554875E+04   -0.12313E-02   -0.25252E-03  4237   0.188E-02    0.567E-01
RMM:  92    -0.231328182675E+04    0.37220E-02   -0.14811E-02  4315   0.411E-02    0.998E-01
RMM:  93    -0.231328057038E+04    0.12564E-02   -0.28387E-03  4042   0.235E-02    0.914E-01
RMM:  94    -0.231328079023E+04   -0.21984E-03   -0.26449E-04  2967   0.766E-03    0.907E-01
RMM:  95    -0.231328079463E+04   -0.44075E-05   -0.42830E-05  2724   0.307E-03
  13 F= -.23336916E+04 E0= -.23336866E+04  d E =-.205665E-01  mag=     5.1554
       N       E                     dE             d eps       ncg     rms          rms(c)
DAV:   1    -0.231327993819E+04    0.85204E-03   -0.83353E-02  4560   0.233E-01    0.103E+00
RMM:   2    -0.231330444886E+04   -0.24511E-01   -0.80218E-02  5050   0.988E-02    0.162E+00
RMM:   3    -0.231329581122E+04    0.86376E-02   -0.27823E-02  5177   0.661E-02    0.239E+00
RMM:   4    -0.231329545140E+04    0.35982E-03   -0.53403E-03  4011   0.232E-02    0.228E+00
RMM:   5    -0.231328135838E+04    0.14093E-01   -0.21095E-02  4854   0.523E-02    0.113E+00
RMM:   6    -0.231328036517E+04    0.99320E-03   -0.41330E-03  4301   0.254E-02    0.144E+00
RMM:   7    -0.231328905207E+04   -0.86869E-02   -0.19075E-02  4306   0.469E-02    0.161E+00
RMM:   8    -0.231328947465E+04   -0.42257E-03   -0.18185E-03  3804   0.200E-02    0.181E+00
RMM:   9    -0.231328876328E+04    0.71137E-03   -0.57187E-04  3302   0.854E-03    0.182E+00
RMM:  10    -0.231329067860E+04   -0.19153E-02   -0.51001E-03  4181   0.246E-02    0.174E+00
RMM:  11    -0.231328797067E+04    0.27079E-02   -0.15539E-03  3819   0.182E-02    0.127E+00
RMM:  12    -0.231328745921E+04    0.51146E-03   -0.54968E-03  4304   0.247E-02    0.159E+00
RMM:  13    -0.231328744547E+04    0.13743E-04   -0.45863E-04  2983   0.113E-02    0.158E+00
RMM:  14    -0.231328794912E+04   -0.50365E-03   -0.23409E-03  4107   0.180E-02    0.146E+00
RMM:  15    -0.231328892830E+04   -0.97918E-03   -0.45264E-03  4344   0.264E-02    0.132E+00
RMM:  16    -0.231329447241E+04   -0.55441E-02   -0.20163E-02  4580   0.528E-02    0.134E+00
RMM:  17    -0.231329130955E+04    0.31629E-02   -0.30536E-03  4218   0.296E-02    0.865E-01
RMM:  18    -0.231329121260E+04    0.96959E-04   -0.14091E-03  3806   0.163E-02    0.794E-01
RMM:  19    -0.231329125400E+04   -0.41401E-04   -0.14815E-04  2932   0.734E-03    0.787E-01
RMM:  20    -0.231329107991E+04    0.17409E-03   -0.26555E-05  2772   0.271E-03    0.782E-01
RMM:  21    -0.231329125099E+04   -0.17108E-03   -0.24190E-04  2999   0.682E-03    0.836E-01
RMM:  22    -0.231329498437E+04   -0.37334E-02   -0.59591E-03  4479   0.306E-02    0.782E-01
RMM:  23    -0.231329987894E+04   -0.48946E-02   -0.82894E-03  4508   0.358E-02    0.858E-01
RMM:  24    -0.231329464159E+04    0.52374E-02   -0.52901E-03  4399   0.284E-02    0.697E-01
RMM:  25    -0.231329127510E+04    0.33665E-02   -0.55414E-03  4402   0.292E-02    0.700E-01
RMM:  26    -0.231329049492E+04    0.78018E-03   -0.13421E-03  3815   0.169E-02    0.687E-01
RMM:  27    -0.231328672499E+04    0.37699E-02   -0.73756E-03  4420   0.303E-02    0.671E-01
RMM:  28    -0.231328713392E+04   -0.40893E-03   -0.76688E-04  3412   0.155E-02    0.744E-01
RMM:  29    -0.231328763808E+04   -0.50417E-03   -0.23056E-04  3070   0.674E-03    0.654E-01
RMM:  30    -0.231328347109E+04    0.41670E-02   -0.13085E-02  4402   0.399E-02    0.740E-01
RMM:  31    -0.231327767899E+04    0.57921E-02   -0.14089E-02  4348   0.444E-02    0.143E+00
RMM:  32    -0.231328311796E+04   -0.54390E-02   -0.57709E-03  4184   0.283E-02    0.715E-01
RMM:  33    -0.231328407653E+04   -0.95857E-03   -0.14083E-03  3962   0.178E-02    0.637E-01
RMM:  34    -0.231329076946E+04   -0.66929E-02   -0.31065E-02  4543   0.619E-02    0.364E-01
RMM:  35    -0.231329079395E+04   -0.24495E-04   -0.42195E-03  4472   0.344E-02    0.738E-01
RMM:  36    -0.231329787983E+04   -0.70859E-02   -0.15130E-02  4322   0.410E-02    0.129E+00
RMM:  37    -0.231329682080E+04    0.10590E-02   -0.14313E-03  3559   0.208E-02    0.119E+00
RMM:  38    -0.231329665327E+04    0.16753E-03   -0.22449E-04  2912   0.539E-03    0.119E+00
RMM:  39    -0.231329373462E+04    0.29187E-02   -0.25965E-03  3932   0.182E-02    0.986E-01
RMM:  40    -0.231329238501E+04    0.13496E-02   -0.30584E-03  4514   0.235E-02    0.994E-01
RMM:  41    -0.231328975482E+04    0.26302E-02   -0.10488E-02  4569   0.364E-02    0.966E-01
RMM:  42    -0.231328825106E+04    0.15038E-02   -0.48307E-03  4213   0.274E-02    0.101E+00
RMM:  43    -0.231328899623E+04   -0.74516E-03   -0.70689E-04  3502   0.114E-02    0.108E+00
RMM:  44    -0.231328993708E+04   -0.94085E-03   -0.12425E-03  3566   0.131E-02    0.114E+00
RMM:  45    -0.231329519505E+04   -0.52580E-02   -0.21391E-02  4390   0.515E-02    0.142E+00
RMM:  46    -0.231329653735E+04   -0.13423E-02   -0.51434E-03  3938   0.313E-02    0.154E+00
RMM:  47    -0.231329299242E+04    0.35449E-02   -0.46173E-03  4148   0.260E-02    0.130E+00
RMM:  48    -0.231329048548E+04    0.25069E-02   -0.51297E-03  4377   0.274E-02    0.130E+00
RMM:  49    -0.231328656396E+04    0.39215E-02   -0.16495E-02  4566   0.460E-02    0.117E+00
RMM:  50    -0.231328400972E+04    0.25542E-02   -0.74221E-03  4359   0.351E-02    0.133E+00
RMM:  51    -0.231328392725E+04    0.82470E-04   -0.15927E-03  3758   0.129E-02    0.135E+00
RMM:  52    -0.231328490745E+04   -0.98020E-03   -0.42817E-04  3150   0.852E-03    0.132E+00
RMM:  53    -0.231328617775E+04   -0.12703E-02   -0.13343E-03  3918   0.136E-02    0.124E+00
RMM:  54    -0.231328770947E+04   -0.15317E-02   -0.26636E-03  4210   0.191E-02    0.115E+00
RMM:  55    -0.231328801394E+04   -0.30447E-03   -0.51419E-04  3204   0.104E-02    0.113E+00
RMM:  56    -0.231328813868E+04   -0.12474E-03   -0.14860E-04  2937   0.449E-03    0.113E+00
RMM:  57    -0.231328530070E+04    0.28380E-02   -0.53232E-03  4191   0.258E-02    0.138E+00
RMM:  58    -0.231328523992E+04    0.60772E-04   -0.42234E-04  3050   0.115E-02    0.139E+00
RMM:  59    -0.231328514939E+04    0.90531E-04   -0.96343E-05  2821   0.324E-03    0.139E+00
RMM:  60    -0.231328499338E+04    0.15601E-03   -0.29723E-05  2567   0.281E-03    0.141E+00
RMM:  61    -0.231328499277E+04    0.61774E-06   -0.51706E-06  2219   0.146E-03
  14 F= -.23336960E+04 E0= -.23336866E+04  d E =-.248983E-01  mag=     5.1565
       N       E                     dE             d eps       ncg     rms          rms(c)
DAV:   1    -0.231323124171E+04    0.53752E-01   -0.40629E+00  4420   0.171E+00    0.170E+00
RMM:   2    -0.231335333776E+04   -0.12210E+00   -0.87902E-01  5796   0.399E-01    0.275E+00
RMM:   3    -0.231333339076E+04    0.19947E-01   -0.13054E-01  5354   0.169E-01    0.417E+00
RMM:   4    -0.231331995305E+04    0.13438E-01   -0.17512E-02  4649   0.520E-02    0.331E+00
RMM:   5    -0.231331526822E+04    0.46848E-02   -0.48793E-03  4521   0.303E-02    0.307E+00
RMM:   6    -0.231330973459E+04    0.55336E-02   -0.24339E-02  4490   0.654E-02    0.304E+00
RMM:   7    -0.231330123847E+04    0.84961E-02   -0.97478E-03  4406   0.474E-02    0.144E+00
RMM:   8    -0.231331208105E+04   -0.10843E-01   -0.26978E-02  4446   0.574E-02    0.265E+00
RMM:   9    -0.231331149741E+04    0.58364E-03   -0.19693E-03  4143   0.260E-02    0.271E+00
RMM:  10    -0.231331309376E+04   -0.15963E-02   -0.56509E-03  4437   0.269E-02    0.269E+00
RMM:  11    -0.231330644426E+04    0.66495E-02   -0.34234E-02  4651   0.664E-02    0.173E+00
RMM:  12    -0.231330546381E+04    0.98045E-03   -0.42545E-03  4144   0.377E-02    0.175E+00
RMM:  13    -0.231330953977E+04   -0.40760E-02   -0.49674E-03  4208   0.267E-02    0.200E+00
RMM:  14    -0.231331234099E+04   -0.28012E-02   -0.12903E-02  4457   0.407E-02    0.211E+00
RMM:  15    -0.231328388395E+04    0.28457E-01   -0.20280E-01  4524   0.148E-01    0.259E+00
RMM:  16    -0.231330198626E+04   -0.18102E-01   -0.45245E-02  5088   0.874E-02    0.142E+00
RMM:  17    -0.231329601384E+04    0.59724E-02   -0.53572E-03  4567   0.384E-02    0.962E-01
RMM:  18    -0.231330208055E+04   -0.60667E-02   -0.22759E-02  4581   0.517E-02    0.476E-01
RMM:  19    -0.231330518618E+04   -0.31056E-02   -0.16618E-02  4699   0.507E-02    0.398E-01
RMM:  20    -0.231330481314E+04    0.37304E-03   -0.16099E-03  4042   0.157E-02    0.399E-01
RMM:  21    -0.231330477951E+04    0.33625E-04   -0.11100E-04  2999   0.436E-03    0.399E-01
RMM:  22    -0.231330477068E+04    0.88350E-05   -0.72504E-06  2790   0.266E-03
  15 F= -.23337161E+04 E0= -.23337092E+04  d E =-.201117E-01  mag=     4.9307
       N       E                     dE             d eps       ncg     rms          rms(c)
DAV:   1    -0.231330321995E+04    0.15596E-02   -0.13321E-01  5128   0.309E-01    0.404E-01
RMM:   2    -0.231331499313E+04   -0.11773E-01   -0.31453E-02  5982   0.761E-02    0.218E+00
RMM:   3    -0.231330926890E+04    0.57242E-02   -0.35257E-03  4388   0.304E-02    0.963E-01
RMM:   4    -0.231330992777E+04   -0.65887E-03   -0.19033E-03  4103   0.177E-02    0.118E+00
RMM:   5    -0.231331037714E+04   -0.44938E-03   -0.21467E-04  3036   0.781E-03    0.127E+00
RMM:   6    -0.231331049421E+04   -0.11707E-03   -0.61978E-05  2891   0.357E-03    0.128E+00
RMM:   7    -0.231330762157E+04    0.28726E-02   -0.76524E-03  4294   0.307E-02    0.968E-01
RMM:   8    -0.231330750652E+04    0.11505E-03   -0.40375E-03  4080   0.265E-02    0.121E+00
RMM:   9    -0.231330402714E+04    0.34794E-02   -0.79649E-03  4648   0.307E-02    0.933E-01
RMM:  10    -0.231330587469E+04   -0.18475E-02   -0.35102E-03  4387   0.247E-02    0.853E-01
RMM:  11    -0.231330745489E+04   -0.15802E-02   -0.14483E-02  4501   0.405E-02    0.281E-01
RMM:  12    -0.231331310788E+04   -0.56530E-02   -0.30250E-02  4666   0.615E-02    0.298E-01
RMM:  13    -0.231330956850E+04    0.35394E-02   -0.58309E-03  4443   0.360E-02    0.221E-01
RMM:  14    -0.231330563859E+04    0.39299E-02   -0.19638E-02  4591   0.495E-02    0.329E-01
RMM:  15    -0.231330403774E+04    0.16009E-02   -0.58436E-03  4405   0.325E-02    0.387E-01
RMM:  16    -0.231330469680E+04   -0.65906E-03   -0.53633E-04  3292   0.928E-03    0.380E-01
RMM:  17    -0.231330615964E+04   -0.14628E-02   -0.21503E-03  4131   0.179E-02    0.331E-01
RMM:  18    -0.231331133658E+04   -0.51769E-02   -0.21489E-02  4528   0.532E-02    0.537E-01
RMM:  19    -0.231331328162E+04   -0.19450E-02   -0.67014E-03  4246   0.370E-02    0.477E-01
RMM:  20    -0.231331320455E+04    0.77074E-04   -0.10124E-03  3732   0.105E-02    0.467E-01
RMM:  21    -0.231331304652E+04    0.15803E-03   -0.77025E-05  3047   0.710E-03    0.392E-01
RMM:  22    -0.231331236468E+04    0.68184E-03   -0.54756E-04  3747   0.104E-02    0.287E-01
RMM:  23    -0.231331310060E+04   -0.73592E-03   -0.58411E-04  4095   0.121E-02    0.233E-01
RMM:  24    -0.231331454101E+04   -0.14404E-02   -0.10526E-03  3895   0.129E-02    0.254E-01
RMM:  25    -0.231331442799E+04    0.11302E-03   -0.11718E-04  2905   0.750E-03    0.260E-01
RMM:  26    -0.231331391957E+04    0.50842E-03   -0.12361E-04  2849   0.495E-03    0.249E-01
RMM:  27    -0.231331392581E+04   -0.62413E-05   -0.16686E-05  2588   0.282E-03
  16 F= -.23337253E+04 E0= -.23337133E+04  d E =-.293285E-01  mag=     4.4846
       N       E                     dE             d eps       ncg     rms          rms(c)
DAV:   1    -0.231329469591E+04    0.19224E-01   -0.17932E+00  4476   0.996E-01    0.106E+00
RMM:   2    -0.231335330142E+04   -0.58606E-01   -0.35867E-01  5931   0.220E-01    0.249E+00
RMM:   3    -0.231337918917E+04   -0.25888E-01   -0.57838E-02  5406   0.993E-02    0.461E+00
RMM:   4    -0.231337693302E+04    0.22562E-02   -0.10744E-02  4259   0.358E-02    0.452E+00
RMM:   5    -0.231333448450E+04    0.42449E-01   -0.60212E-03  4185   0.299E-02    0.142E+00
RMM:   6    -0.231333896688E+04   -0.44824E-02   -0.32999E-03  4292   0.233E-02    0.256E+00
RMM:   7    -0.231333790198E+04    0.10649E-02   -0.16573E-03  3743   0.159E-02    0.231E+00
RMM:   8    -0.231333856756E+04   -0.66558E-03   -0.73934E-04  3373   0.103E-02    0.252E+00
RMM:   9    -0.231333371743E+04    0.48501E-02   -0.28239E-03  4310   0.198E-02    0.217E+00
RMM:  10    -0.231332961521E+04    0.41022E-02   -0.17641E-03  4051   0.186E-02    0.183E+00
RMM:  11    -0.231332722437E+04    0.23908E-02   -0.11038E-03  3949   0.135E-02    0.164E+00
RMM:  12    -0.231332256460E+04    0.46598E-02   -0.21525E-03  4363   0.177E-02    0.110E+00
RMM:  13    -0.231332074392E+04    0.18207E-02   -0.13772E-03  3912   0.154E-02    0.985E-01
RMM:  14    -0.231331896519E+04    0.17787E-02   -0.18129E-03  4031   0.146E-02    0.903E-01
RMM:  15    -0.231331620839E+04    0.27568E-02   -0.23359E-03  4182   0.184E-02    0.750E-01
RMM:  16    -0.231331480017E+04    0.14082E-02   -0.14131E-03  3918   0.152E-02    0.781E-01
RMM:  17    -0.231331203846E+04    0.27617E-02   -0.36527E-03  4472   0.205E-02    0.746E-01
RMM:  18    -0.231330724609E+04    0.47924E-02   -0.77712E-03  4578   0.323E-02    0.795E-01
RMM:  19    -0.231330704881E+04    0.19728E-03   -0.99923E-04  3611   0.156E-02    0.823E-01
RMM:  20    -0.231330713433E+04   -0.85513E-04   -0.17995E-04  2952   0.437E-03    0.813E-01
RMM:  21    -0.231330720157E+04   -0.67244E-04   -0.13082E-05  2793   0.294E-03    0.802E-01
RMM:  22    -0.231330656329E+04    0.63828E-03   -0.10243E-04  2853   0.368E-03    0.806E-01
RMM:  23    -0.231330658163E+04   -0.18342E-04   -0.14467E-05  2463   0.258E-03    0.818E-01
RMM:  24    -0.231330647834E+04    0.10329E-03   -0.10298E-05  2360   0.161E-03    0.821E-01
RMM:  25    -0.231330652325E+04   -0.44912E-04   -0.39232E-05  2679   0.261E-03    0.806E-01
RMM:  26    -0.231330565977E+04    0.86348E-03   -0.41458E-04  3180   0.694E-03    0.789E-01
RMM:  27    -0.231330188528E+04    0.37745E-02   -0.38539E-03  3876   0.191E-02    0.109E+00
RMM:  28    -0.231330251057E+04   -0.62529E-03   -0.25903E-04  2841   0.776E-03    0.105E+00
RMM:  29    -0.231330248335E+04    0.27222E-04   -0.39699E-05  2590   0.246E-03    0.105E+00
RMM:  30    -0.231330289029E+04   -0.40695E-03   -0.15548E-05  2461   0.199E-03    0.105E+00
RMM:  31    -0.231330398421E+04   -0.10939E-02   -0.12411E-04  2805   0.407E-03    0.990E-01
RMM:  32    -0.231331026066E+04   -0.62764E-02   -0.29868E-03  3911   0.185E-02    0.124E+00
RMM:  33    -0.231331164805E+04   -0.13874E-02   -0.72658E-04  3085   0.111E-02    0.139E+00
RMM:  34    -0.231330992421E+04    0.17238E-02   -0.45424E-04  3108   0.855E-03    0.120E+00
RMM:  35    -0.231330960530E+04    0.31892E-03   -0.40536E-03  4375   0.234E-02    0.117E+00
RMM:  36    -0.231330965234E+04   -0.47048E-04   -0.25102E-03  4249   0.219E-02    0.121E+00
RMM:  37    -0.231331016371E+04   -0.51137E-03   -0.98766E-04  4214   0.121E-02    0.113E+00
RMM:  38    -0.231330939219E+04    0.77153E-03   -0.12088E-03  3900   0.134E-02    0.123E+00
RMM:  39    -0.231330940782E+04   -0.15637E-04   -0.10108E-03  3738   0.123E-02    0.943E-01
RMM:  40    -0.231330886228E+04    0.54555E-03   -0.53398E-03  4697   0.268E-02    0.962E-01
RMM:  41    -0.231330914550E+04   -0.28323E-03   -0.37327E-04  3165   0.132E-02    0.965E-01
RMM:  42    -0.231330871771E+04    0.42780E-03   -0.43381E-04  3519   0.733E-03    0.868E-01
RMM:  43    -0.231330704580E+04    0.16719E-02   -0.46904E-03  4540   0.246E-02    0.105E+00
RMM:  44    -0.231330607739E+04    0.96842E-03   -0.19449E-03  3980   0.185E-02    0.115E+00
RMM:  45    -0.231330606092E+04    0.16468E-04   -0.20677E-04  2972   0.586E-03    0.114E+00
RMM:  46    -0.231330660400E+04   -0.54308E-03   -0.28681E-04  3134   0.685E-03    0.109E+00
RMM:  47    -0.231330783887E+04   -0.12349E-02   -0.30111E-03  4036   0.181E-02    0.516E-01
RMM:  48    -0.231330855593E+04   -0.71707E-03   -0.11452E-03  3464   0.134E-02    0.340E-01
RMM:  49    -0.231330881870E+04   -0.26277E-03   -0.68329E-04  3689   0.974E-03    0.349E-01
RMM:  50    -0.231330925951E+04   -0.44081E-03   -0.11800E-03  4124   0.133E-02    0.473E-01
RMM:  51    -0.231330957028E+04   -0.31076E-03   -0.79148E-04  3721   0.116E-02    0.559E-01
RMM:  52    -0.231330983499E+04   -0.26472E-03   -0.22531E-04  2968   0.650E-03    0.566E-01
RMM:  53    -0.231330935988E+04    0.47511E-03   -0.57759E-05  2707   0.437E-03    0.493E-01
RMM:  54    -0.231330953359E+04   -0.17371E-03   -0.17351E-04  3060   0.541E-03    0.525E-01
RMM:  55    -0.231330908194E+04    0.45165E-03   -0.24036E-04  3135   0.687E-03    0.441E-01
RMM:  56    -0.231330873139E+04    0.35055E-03   -0.86074E-05  2746   0.454E-03    0.427E-01
RMM:  57    -0.231330881978E+04   -0.88393E-04   -0.35284E-04  3113   0.665E-03    0.527E-01
RMM:  58    -0.231330893785E+04   -0.11806E-03   -0.10757E-04  2794   0.472E-03    0.542E-01
RMM:  59    -0.231330892986E+04    0.79870E-05   -0.17058E-05  2508   0.243E-03
  17 F= -.23337207E+04 E0= -.23337089E+04  d E =0.460889E-02  mag=     4.6598
       N       E                     dE             d eps       ncg     rms          rms(c)
DAV:   1    -0.231323465315E+04    0.74285E-01   -0.47861E+00  4408   0.163E+00    0.206E+00
RMM:   2    -0.231338160834E+04   -0.14696E+00   -0.10913E+00  5709   0.377E-01    0.371E+00
RMM:   3    -0.231336439328E+04    0.17215E-01   -0.19183E-01  5067   0.179E-01    0.451E+00
RMM:   4    -0.231334298093E+04    0.21412E-01   -0.19433E-02  4737   0.543E-02    0.392E+00
RMM:   5    -0.231334276790E+04    0.21303E-03   -0.29802E-03  3966   0.183E-02    0.372E+00
RMM:   6    -0.231333614685E+04    0.66211E-02   -0.14379E-03  4040   0.158E-02    0.342E+00
RMM:   7    -0.231330141173E+04    0.34735E-01   -0.34572E-02  4458   0.718E-02    0.659E-01
RMM:   8    -0.231331834852E+04   -0.16937E-01   -0.87143E-03  4358   0.492E-02    0.134E+00
RMM:   9    -0.231331280348E+04    0.55450E-02   -0.20883E-03  3777   0.225E-02    0.787E-01
RMM:  10    -0.231331568101E+04   -0.28775E-02   -0.38631E-03  4261   0.288E-02    0.336E-01
RMM:  11    -0.231331826121E+04   -0.25802E-02   -0.18934E-03  4036   0.218E-02    0.224E-01
RMM:  12    -0.231331942635E+04   -0.11651E-02   -0.84686E-04  3987   0.154E-02    0.181E-01
RMM:  13    -0.231332019659E+04   -0.77024E-03   -0.41869E-04  3828   0.117E-02    0.120E-01
RMM:  14    -0.231332060950E+04   -0.41292E-03   -0.17838E-04  3414   0.823E-03    0.120E-01
RMM:  15    -0.231332097462E+04   -0.36512E-03   -0.19833E-04  3482   0.732E-03    0.129E-01
RMM:  16    -0.231332130382E+04   -0.32920E-03   -0.31713E-04  3690   0.898E-03    0.529E-02
RMM:  17    -0.231332156530E+04   -0.26149E-03   -0.17392E-04  3559   0.811E-03    0.216E-02
RMM:  18    -0.231332164748E+04   -0.82173E-04   -0.32565E-05  2971   0.523E-03    0.269E-02
RMM:  19    -0.231332167555E+04   -0.28078E-04   -0.96291E-06  2839   0.346E-03    0.189E-02
RMM:  20    -0.231332169941E+04   -0.23853E-04   -0.10232E-05  2766   0.303E-03    0.987E-03
RMM:  21    -0.231332170571E+04   -0.63065E-05   -0.41030E-06  2576   0.252E-03
  18 F= -.23337341E+04 E0= -.23337167E+04  d E =-.883899E-02  mag=     4.0330
       N       E                     dE             d eps       ncg     rms          rms(c)
DAV:   1    -0.231298432125E+04    0.33738E+00   -0.19228E+01  4408   0.323E+00    0.289E+00
RMM:   2    -0.231336126429E+04   -0.37694E+00   -0.37560E+00  5964   0.707E-01    0.213E+00
RMM:   3    -0.231339172109E+04   -0.30457E-01   -0.39030E-01  5237   0.279E-01    0.217E+00
RMM:   4    -0.231335951664E+04    0.32204E-01   -0.62000E-02  5149   0.992E-02    0.128E+00
RMM:   5    -0.231334743160E+04    0.12085E-01   -0.29298E-02  5002   0.664E-02    0.963E-01
RMM:   6    -0.231335143626E+04   -0.40047E-02   -0.24481E-02  4471   0.689E-02    0.590E-01
RMM:   7    -0.231336512225E+04   -0.13686E-01   -0.56775E-03  4248   0.404E-02    0.662E-01
RMM:   8    -0.231336132227E+04    0.38000E-02   -0.74329E-04  3841   0.135E-02    0.619E-01
RMM:   9    -0.231335449549E+04    0.68268E-02   -0.71946E-03  4050   0.290E-02    0.491E-01
RMM:  10    -0.231335234521E+04    0.21503E-02   -0.51966E-03  3878   0.249E-02    0.395E-01
RMM:  11    -0.231335907703E+04   -0.67318E-02   -0.43060E-03  3930   0.237E-02    0.250E-01
RMM:  12    -0.231336962815E+04   -0.10551E-01   -0.29370E-03  4121   0.263E-02    0.174E-01
RMM:  13    -0.231337679216E+04   -0.71640E-02   -0.22911E-03  4232   0.259E-02    0.116E-01
RMM:  14    -0.231338130772E+04   -0.45156E-02   -0.14910E-03  4203   0.235E-02    0.962E-02
RMM:  15    -0.231338335409E+04   -0.20464E-02   -0.66910E-04  4059   0.155E-02    0.659E-02
RMM:  16    -0.231338504915E+04   -0.16951E-02   -0.47057E-04  3944   0.131E-02    0.506E-02
RMM:  17    -0.231338571853E+04   -0.66938E-03   -0.15896E-04  3640   0.982E-03    0.475E-02
RMM:  18    -0.231338611457E+04   -0.39603E-03   -0.80169E-05  3473   0.676E-03    0.307E-02
RMM:  19    -0.231338636652E+04   -0.25195E-03   -0.62766E-05  3231   0.651E-03    0.109E-02
RMM:  20    -0.231338647709E+04   -0.11057E-03   -0.27536E-05  2989   0.477E-03    0.541E-03
RMM:  21    -0.231338651452E+04   -0.37429E-04   -0.85064E-06  2805   0.362E-03    0.356E-03
RMM:  22    -0.231338653124E+04   -0.16721E-04   -0.51457E-06  2646   0.258E-03    0.278E-03
RMM:  23    -0.231338653717E+04   -0.59323E-05   -0.27478E-06  2491   0.216E-03
  19 F= -.23338004E+04 E0= -.23338004E+04  d E =-.751577E-01  mag=     3.0008
       N       E                     dE             d eps       ncg     rms          rms(c)
DAV:   1    -0.231167616070E+04    0.17104E+01   -0.76861E+01  4408   0.651E+00    0.324E+00
RMM:   2    -0.231369685045E+04   -0.20207E+01   -0.15314E+01  6185   0.149E+00    0.748E+00
RMM:   3    -0.231328813768E+04    0.40871E+00   -0.16026E+00  5857   0.522E-01    0.184E+00
RMM:   4    -0.231332305866E+04   -0.34921E-01   -0.18367E-01  5018   0.120E-01    0.111E+00
RMM:   5    -0.231331683481E+04    0.62239E-02   -0.22418E-02  5266   0.693E-02    0.893E-01
RMM:   6    -0.231331467220E+04    0.21626E-02   -0.11092E-02  5387   0.466E-02    0.519E-01
RMM:   7    -0.231331305380E+04    0.16184E-02   -0.94078E-03  4706   0.398E-02    0.275E-01
RMM:   8    -0.231331359813E+04   -0.54432E-03   -0.20965E-03  4541   0.284E-02    0.233E-01
RMM:   9    -0.231331369771E+04   -0.99580E-04   -0.84205E-04  3951   0.136E-02    0.185E-01
RMM:  10    -0.231331425925E+04   -0.56154E-03   -0.44021E-04  3401   0.108E-02    0.212E-01
RMM:  11    -0.231331433064E+04   -0.71386E-04   -0.79095E-05  2858   0.495E-03    0.213E-01
RMM:  12    -0.231331454015E+04   -0.20951E-03   -0.78839E-05  2843   0.381E-03    0.225E-01
RMM:  13    -0.231331330887E+04    0.12313E-02   -0.17768E-03  3502   0.139E-02    0.117E-01
RMM:  14    -0.231331291434E+04    0.39453E-03   -0.89449E-04  3135   0.105E-02    0.909E-02
RMM:  15    -0.231331261217E+04    0.30217E-03   -0.14791E-03  3470   0.123E-02    0.751E-02
RMM:  16    -0.231331257391E+04    0.38256E-04   -0.40756E-04  2876   0.778E-03    0.719E-02
RMM:  17    -0.231331260254E+04   -0.28625E-04   -0.11914E-04  2738   0.352E-03    0.662E-02
RMM:  18    -0.231331266043E+04   -0.57888E-04   -0.29098E-05  2789   0.278E-03    0.419E-02
RMM:  19    -0.231331274493E+04   -0.84502E-04   -0.12960E-04  2909   0.476E-03    0.168E-02
RMM:  20    -0.231331273579E+04    0.91335E-05   -0.17289E-05  2595   0.290E-03
  20 F= -.23337302E+04 E0= -.23337302E+04  d E =-.489617E-02  mag=     3.0001
       N       E                     dE             d eps       ncg     rms          rms(c)
DAV:   1    -0.231231984759E+04    0.99290E+00   -0.52864E+01  4408   0.547E+00    0.265E+00
RMM:   2    -0.231334387223E+04   -0.10240E+01   -0.10340E+01  6194   0.121E+00    0.222E+00
RMM:   3    -0.231338164372E+04   -0.37771E-01   -0.10950E+00  5699   0.436E-01    0.147E+00
RMM:   4    -0.231339581611E+04   -0.14172E-01   -0.11316E-01  5576   0.925E-02    0.102E+00
RMM:   5    -0.231339824833E+04   -0.24322E-02   -0.15818E-02  5262   0.462E-02    0.102E+00
RMM:   6    -0.231339570752E+04    0.25408E-02   -0.93318E-03  5245   0.358E-02    0.731E-01
RMM:   7    -0.231339687641E+04   -0.11689E-02   -0.89286E-03  5059   0.379E-02    0.655E-01
RMM:   8    -0.231339871077E+04   -0.18344E-02   -0.19078E-03  4266   0.181E-02    0.673E-01
RMM:   9    -0.231339506962E+04    0.36411E-02   -0.25126E-03  3740   0.174E-02    0.573E-01
RMM:  10    -0.231338837405E+04    0.66956E-02   -0.21491E-02  4296   0.454E-02    0.578E-01
RMM:  11    -0.231338658151E+04    0.17925E-02   -0.85487E-03  4005   0.343E-02    0.627E-01
RMM:  12    -0.231338637114E+04    0.21037E-03   -0.51358E-03  3925   0.210E-02    0.639E-01
RMM:  13    -0.231338641085E+04   -0.39710E-04   -0.50179E-04  2929   0.981E-03    0.641E-01
RMM:  14    -0.231338599361E+04    0.41724E-03   -0.93038E-04  3203   0.862E-03    0.706E-01
RMM:  15    -0.231338759268E+04   -0.15991E-02   -0.22743E-02  4230   0.473E-02    0.565E-01
RMM:  16    -0.231338633746E+04    0.12552E-02   -0.22889E-02  4279   0.506E-02    0.910E-01
RMM:  17    -0.231338476550E+04    0.15720E-02   -0.36618E-02  4332   0.604E-02    0.661E-01
RMM:  18    -0.231338242407E+04    0.23414E-02   -0.16614E-02  4160   0.415E-02    0.827E-01
RMM:  19    -0.231338802025E+04   -0.55962E-02   -0.28352E-02  4250   0.552E-02    0.484E-01
RMM:  20    -0.231339133006E+04   -0.33098E-02   -0.22339E-02  4273   0.495E-02    0.533E-01
RMM:  21    -0.231339438158E+04   -0.30515E-02   -0.18493E-02  4344   0.438E-02    0.762E-01
RMM:  22    -0.231339306640E+04    0.13152E-02   -0.24284E-03  3656   0.184E-02    0.836E-01
RMM:  23    -0.231339393483E+04   -0.86843E-03   -0.19168E-03  3585   0.126E-02    0.901E-01
RMM:  24    -0.231339460962E+04   -0.67479E-03   -0.25605E-04  2849   0.717E-03    0.887E-01
RMM:  25    -0.231339834007E+04   -0.37305E-02   -0.83134E-03  3975   0.295E-02    0.101E+00
RMM:  26    -0.231340474438E+04   -0.64043E-02   -0.28041E-03  3775   0.204E-02    0.695E-01
RMM:  27    -0.231340413255E+04    0.61184E-03   -0.31618E-02  4273   0.640E-02    0.116E+00
RMM:  28    -0.231341715603E+04   -0.13023E-01   -0.51182E-03  3795   0.334E-02    0.901E-01
RMM:  29    -0.231342436673E+04   -0.72107E-02   -0.34609E-03  3803   0.225E-02    0.651E-01
RMM:  30    -0.231342780770E+04   -0.34410E-02   -0.13856E-03  3367   0.147E-02    0.670E-01
RMM:  31    -0.231342801176E+04   -0.20406E-03   -0.26307E-04  2861   0.618E-03    0.673E-01
RMM:  32    -0.231342721169E+04    0.80008E-03   -0.11984E-04  2750   0.409E-03    0.704E-01
RMM:  33    -0.231342746174E+04   -0.25005E-03   -0.13998E-05  2611   0.228E-03    0.701E-01
RMM:  34    -0.231342750648E+04   -0.44748E-04   -0.36708E-06  2284   0.116E-03    0.701E-01
RMM:  35    -0.231342767687E+04   -0.17039E-03   -0.22807E-06  2088   0.108E-03    0.695E-01
RMM:  36    -0.231343115493E+04   -0.34781E-02   -0.62668E-04  3105   0.843E-03    0.688E-01
RMM:  37    -0.231344129888E+04   -0.10144E-01   -0.67028E-03  3892   0.267E-02    0.690E-01
RMM:  38    -0.231344296533E+04   -0.16664E-02   -0.92150E-04  3051   0.118E-02    0.675E-01
RMM:  39    -0.231345089806E+04   -0.79327E-02   -0.36891E-03  3768   0.195E-02    0.605E-01
RMM:  40    -0.231345217844E+04   -0.12804E-02   -0.58410E-04  2936   0.953E-03    0.606E-01
RMM:  41    -0.231346506195E+04   -0.12884E-01   -0.11093E-02  4080   0.339E-02    0.598E-01
RMM:  42    -0.231346551547E+04   -0.45352E-03   -0.11954E-03  3099   0.146E-02    0.569E-01
RMM:  43    -0.231347060774E+04   -0.50923E-02   -0.27431E-03  3725   0.165E-02    0.542E-01
RMM:  44    -0.231347228806E+04   -0.16803E-02   -0.68305E-04  3016   0.992E-03    0.540E-01
RMM:  45    -0.231347058381E+04    0.17043E-02   -0.28231E-03  3659   0.174E-02    0.749E-01
RMM:  46    -0.231347563206E+04   -0.50482E-02   -0.16725E-03  3467   0.138E-02    0.568E-01
RMM:  47    -0.231348133967E+04   -0.57076E-02   -0.41025E-03  3814   0.219E-02    0.433E-01
RMM:  48    -0.231347820818E+04    0.31315E-02   -0.91967E-04  3307   0.125E-02    0.486E-01
RMM:  49    -0.231348134217E+04   -0.31340E-02   -0.87987E-04  3223   0.109E-02    0.462E-01
RMM:  50    -0.231348249975E+04   -0.11576E-02   -0.49453E-04  2984   0.808E-03    0.459E-01
RMM:  51    -0.231348593709E+04   -0.34373E-02   -0.33529E-03  3790   0.194E-02    0.489E-01
RMM:  52    -0.231348600933E+04   -0.72242E-04   -0.31876E-04  2836   0.832E-03    0.483E-01
RMM:  53    -0.231348721210E+04   -0.12028E-02   -0.35473E-04  2928   0.597E-03    0.457E-01
RMM:  54    -0.231348965929E+04   -0.24472E-02   -0.10199E-03  3245   0.109E-02    0.305E-01
RMM:  55    -0.231349295107E+04   -0.32918E-02   -0.65636E-03  3909   0.277E-02    0.292E-01
RMM:  56    -0.231349208096E+04    0.87011E-03   -0.60441E-04  3022   0.120E-02    0.342E-01
RMM:  57    -0.231349393091E+04   -0.18500E-02   -0.12092E-03  3320   0.116E-02    0.199E-01
RMM:  58    -0.231349312336E+04    0.80756E-03   -0.25073E-04  2884   0.678E-03    0.230E-01
RMM:  59    -0.231349365191E+04   -0.52855E-03   -0.37249E-04  2910   0.698E-03    0.176E-01
RMM:  60    -0.231349441154E+04   -0.75963E-03   -0.54152E-04  3031   0.801E-03    0.166E-01
RMM:  61    -0.231349480303E+04   -0.39149E-03   -0.41884E-04  2945   0.735E-03    0.179E-01
RMM:  62    -0.231349509181E+04   -0.28878E-03   -0.12096E-04  2734   0.475E-03    0.144E-01
RMM:  63    -0.231349573071E+04   -0.63890E-03   -0.59455E-04  3134   0.863E-03    0.102E-01
RMM:  64    -0.231349588299E+04   -0.15228E-03   -0.23284E-04  2835   0.627E-03    0.112E-01
RMM:  65    -0.231349593139E+04   -0.48397E-04   -0.52950E-05  2680   0.312E-03    0.103E-01
RMM:  66    -0.231349604396E+04   -0.11257E-03   -0.38374E-05  2579   0.264E-03    0.918E-02
RMM:  67    -0.231349605234E+04   -0.83762E-05   -0.30237E-05  2450   0.250E-03
  21 F= -.23339105E+04 E0= -.23339105E+04  d E =-.185214E+00  mag=     3.0000
       N       E                     dE             d eps       ncg     rms          rms(c)
DAV:   1    -0.231348761784E+04    0.84261E-02   -0.60003E-01  4432   0.574E-01    0.284E-01
RMM:   2    -0.231349899279E+04   -0.11375E-01   -0.11400E-01  6139   0.123E-01    0.214E-01
RMM:   3    -0.231349966686E+04   -0.67406E-03   -0.10268E-02  4750   0.457E-02    0.164E-01
RMM:   4    -0.231349961065E+04    0.56204E-04   -0.13223E-03  3061   0.109E-02    0.120E-01
RMM:   5    -0.231349959584E+04    0.14815E-04   -0.15675E-04  2934   0.603E-03    0.991E-02
RMM:   6    -0.231349965569E+04   -0.59857E-04   -0.37642E-04  3516   0.908E-03    0.665E-02
RMM:   7    -0.231349968149E+04   -0.25798E-04   -0.99040E-05  2879   0.624E-03    0.459E-02
RMM:   8    -0.231349971424E+04   -0.32743E-04   -0.12100E-04  2874   0.465E-03    0.209E-02
RMM:   9    -0.231349971780E+04   -0.35627E-05   -0.26761E-05  2752   0.319E-03
  22 F= -.23339139E+04 E0= -.23339139E+04  d E =-.188592E+00  mag=     3.0000
       N       E                     dE             d eps       ncg     rms          rms(c)
DAV:   1    -0.231350029029E+04   -0.57606E-03   -0.34526E-01  4432   0.407E-01    0.198E-01
RMM:   2    -0.231350619431E+04   -0.59040E-02   -0.60540E-02  6086   0.836E-02    0.133E-01
RMM:   3    -0.231350652096E+04   -0.32665E-03   -0.49402E-03  3689   0.302E-02    0.856E-02
RMM:   4    -0.231350650742E+04    0.13543E-04   -0.66814E-04  2964   0.829E-03    0.620E-02
RMM:   5    -0.231350647492E+04    0.32504E-04   -0.92274E-05  2841   0.467E-03    0.402E-02
RMM:   6    -0.231350645851E+04    0.16404E-04   -0.84276E-05  2927   0.467E-03    0.144E-02
RMM:   7    -0.231350645824E+04    0.27556E-06   -0.68088E-06  2778   0.321E-03
  23 F= -.23339209E+04 E0= -.23339209E+04  d E =-.698805E-02  mag=     3.0000
       N       E                     dE             d eps       ncg     rms          rms(c)
DAV:   1    -0.231346544908E+04    0.41009E-01   -0.31063E+00  4408   0.122E+00    0.594E-01
RMM:   2    -0.231351869395E+04   -0.53245E-01   -0.54512E-01  6154   0.253E-01    0.419E-01
RMM:   3    -0.231352193269E+04   -0.32387E-02   -0.49542E-02  5640   0.936E-02    0.261E-01
RMM:   4    -0.231352178043E+04    0.15226E-03   -0.60719E-03  4393   0.213E-02    0.179E-01
RMM:   5    -0.231352150932E+04    0.27111E-03   -0.92248E-04  3548   0.124E-02    0.124E-01
RMM:   6    -0.231352135642E+04    0.15290E-03   -0.71903E-04  4138   0.117E-02    0.541E-02
RMM:   7    -0.231352134328E+04    0.13143E-04   -0.72704E-05  2935   0.740E-03    0.216E-02
RMM:   8    -0.231352134406E+04   -0.78218E-06   -0.25281E-05  2868   0.336E-03
  24 F= -.23339365E+04 E0= -.23339365E+04  d E =-.226378E-01  mag=     3.0000
       N       E                     dE             d eps       ncg     rms          rms(c)
DAV:   1    -0.231329870624E+04    0.22264E+00   -0.12413E+01  4408   0.245E+00    0.120E+00
RMM:   2    -0.231351521504E+04   -0.21651E+00   -0.22129E+00  6152   0.518E-01    0.883E-01
RMM:   3    -0.231352870279E+04   -0.13488E-01   -0.21346E-01  5874   0.188E-01    0.540E-01
RMM:   4    -0.231352783587E+04    0.86692E-03   -0.24219E-02  5439   0.426E-02    0.353E-01
RMM:   5    -0.231352668031E+04    0.11556E-02   -0.42375E-03  4627   0.242E-02    0.239E-01
RMM:   6    -0.231352623549E+04    0.44481E-03   -0.24838E-03  4898   0.202E-02    0.124E-01
RMM:   7    -0.231352614021E+04    0.95284E-04   -0.36619E-04  3681   0.120E-02    0.490E-02
RMM:   8    -0.231352614052E+04   -0.31511E-06   -0.10170E-04  2904   0.574E-03    0.309E-02
RMM:   9    -0.231352614914E+04   -0.86154E-05   -0.42212E-05  2855   0.412E-03
  25 F= -.23339429E+04 E0= -.23339429E+04  d E =-.290631E-01  mag=     3.0000
       N       E                     dE             d eps       ncg     rms          rms(c)
DAV:   1    -0.231350449821E+04    0.21642E-01   -0.13267E+00  4432   0.799E-01    0.387E-01
RMM:   2    -0.231352712884E+04   -0.22631E-01   -0.23246E-01  6178   0.166E-01    0.252E-01
RMM:   3    -0.231352869930E+04   -0.15705E-02   -0.21658E-02  5249   0.615E-02    0.178E-01
RMM:   4    -0.231352861132E+04    0.87976E-04   -0.26686E-03  3302   0.140E-02    0.121E-01
RMM:   5    -0.231352846107E+04    0.15026E-03   -0.27683E-04  3103   0.789E-03    0.713E-02
RMM:   6    -0.231352841530E+04    0.45769E-04   -0.30119E-04  3618   0.904E-03    0.176E-02
RMM:   7    -0.231352841311E+04    0.21830E-05   -0.18918E-05  2869   0.527E-03
  26 F= -.23339447E+04 E0= -.23339447E+04  d E =-.307833E-01  mag=     3.0000
       N       E                     dE             d eps       ncg     rms          rms(c)
DAV:   1    -0.231354373528E+04   -0.15320E-01   -0.98131E-02  4584   0.299E-01    0.127E-01
RMM:   2    -0.231354406563E+04   -0.33036E-03   -0.44907E-03  5224   0.499E-02    0.609E-02
RMM:   3    -0.231354405106E+04    0.14573E-04   -0.44630E-04  4184   0.236E-02    0.602E-02
RMM:   4    -0.231354401052E+04    0.40541E-04   -0.10773E-04  3441   0.758E-03    0.307E-02
RMM:   5    -0.231354399904E+04    0.11473E-04   -0.48759E-05  3051   0.658E-03    0.118E-02
RMM:   6    -0.231354399775E+04    0.12944E-05   -0.12120E-05  2858   0.458E-03
  27 F= -.23339603E+04 E0= -.23339603E+04  d E =-.156511E-01  mag=     3.0000
       N       E                     dE             d eps       ncg     rms          rms(c)
DAV:   1    -0.231357486560E+04   -0.30867E-01   -0.88404E-01  4472   0.893E-01    0.382E-01
RMM:   2    -0.231357786340E+04   -0.29978E-02   -0.41086E-02  5134   0.149E-01    0.177E-01
RMM:   3    -0.231357764965E+04    0.21375E-03   -0.39361E-03  4706   0.688E-02    0.159E-01
RMM:   4    -0.231357740119E+04    0.24846E-03   -0.99274E-04  4743   0.211E-02    0.991E-02
RMM:   5    -0.231357727789E+04    0.12330E-03   -0.44484E-04  4489   0.184E-02    0.353E-02
RMM:   6    -0.231357726083E+04    0.17057E-04   -0.83022E-05  3529   0.749E-03    0.167E-02
RMM:   7    -0.231357725163E+04    0.92049E-05   -0.19059E-05  2903   0.537E-03
  28 F= -.23339938E+04 E0= -.23339938E+04  d E =-.491080E-01  mag=     3.0000
       N       E                     dE             d eps       ncg     rms          rms(c)
DAV:   1    -0.231357009506E+04    0.71658E-02   -0.35569E+00  4456   0.178E+00    0.770E-01
RMM:   2    -0.231358220226E+04   -0.12107E-01   -0.16810E-01  5104   0.301E-01    0.358E-01
RMM:   3    -0.231358098441E+04    0.12179E-02   -0.15785E-02  4761   0.135E-01    0.311E-01
RMM:   4    -0.231358006888E+04    0.91553E-03   -0.41389E-03  5006   0.427E-02    0.205E-01
RMM:   5    -0.231357953869E+04    0.53019E-03   -0.17598E-03  4875   0.364E-02    0.696E-02
RMM:   6    -0.231357947035E+04    0.68339E-04   -0.32786E-04  4646   0.133E-02    0.338E-02
RMM:   7    -0.231357943254E+04    0.37809E-04   -0.80225E-05  3633   0.904E-03    0.192E-02
RMM:   8    -0.231357941708E+04    0.15455E-04   -0.31450E-05  3115   0.518E-03    0.904E-03
RMM:   9    -0.231357941119E+04    0.58926E-05   -0.12778E-05  2854   0.447E-03
  29 F= -.23339963E+04 E0= -.23339963E+04  d E =-.516832E-01  mag=     3.0000
       N       E                     dE             d eps       ncg     rms          rms(c)
DAV:   1    -0.231358726364E+04   -0.78466E-02   -0.81958E-01  4472   0.866E-01    0.370E-01
RMM:   2    -0.231359001480E+04   -0.27512E-02   -0.38131E-02  5348   0.145E-01    0.173E-01
RMM:   3    -0.231358979794E+04    0.21686E-03   -0.37072E-03  4735   0.641E-02    0.153E-01
RMM:   4    -0.231358957156E+04    0.22638E-03   -0.91076E-04  4741   0.210E-02    0.967E-02
RMM:   5    -0.231358946278E+04    0.10878E-03   -0.42751E-04  4336   0.175E-02    0.376E-02
RMM:   6    -0.231358944195E+04    0.20829E-04   -0.78015E-05  3313   0.786E-03    0.158E-02
RMM:   7    -0.231358943508E+04    0.68638E-05   -0.18319E-05  2898   0.496E-03
  30 F= -.23340062E+04 E0= -.23340062E+04  d E =-.615067E-01  mag=     3.0000
       N       E                     dE             d eps       ncg     rms          rms(c)
DAV:   1    -0.231359601200E+04   -0.65701E-02   -0.90323E-02  4528   0.272E-01    0.108E-01
RMM:   2    -0.231359675339E+04   -0.74138E-03   -0.84586E-03  5837   0.533E-02    0.682E-02
RMM:   3    -0.231359678085E+04   -0.27462E-04   -0.92195E-04  3791   0.219E-02    0.531E-02
RMM:   4    -0.231359674783E+04    0.33023E-04   -0.11382E-04  2993   0.676E-03    0.270E-02
RMM:   5    -0.231359673778E+04    0.10047E-04   -0.48245E-05  3029   0.570E-03    0.140E-02
RMM:   6    -0.231359673487E+04    0.29122E-05   -0.14853E-05  2862   0.467E-03
  31 F= -.23340136E+04 E0= -.23340136E+04  d E =-.739988E-02  mag=     3.0000
       N       E                     dE             d eps       ncg     rms          rms(c)
DAV:   1    -0.231360618995E+04   -0.94522E-02   -0.81250E-01  4420   0.815E-01    0.325E-01
RMM:   2    -0.231361287797E+04   -0.66880E-02   -0.76288E-02  5785   0.155E-01    0.202E-01
RMM:   3    -0.231361311114E+04   -0.23317E-03   -0.83330E-03  5392   0.598E-02    0.156E-01
RMM:   4    -0.231361283478E+04    0.27636E-03   -0.10590E-03  4651   0.172E-02    0.812E-02
RMM:   5    -0.231361275351E+04    0.81269E-04   -0.38239E-04  4567   0.142E-02    0.415E-02
RMM:   6    -0.231361272640E+04    0.27110E-04   -0.10347E-04  3940   0.778E-03    0.204E-02
RMM:   7    -0.231361271763E+04    0.87685E-05   -0.21456E-05  2889   0.583E-03
  32 F= -.23340298E+04 E0= -.23340298E+04  d E =-.236822E-01  mag=     3.0000
       N       E                     dE             d eps       ncg     rms          rms(c)
DAV:   1    -0.231359166120E+04    0.21065E-01   -0.32532E+00  4408   0.164E+00    0.652E-01
RMM:   2    -0.231361845776E+04   -0.26797E-01   -0.30692E-01  5765   0.311E-01    0.398E-01
RMM:   3    -0.231361927002E+04   -0.81226E-03   -0.33423E-02  5468   0.122E-01    0.300E-01
RMM:   4    -0.231361825633E+04    0.10137E-02   -0.42598E-03  4932   0.340E-02    0.163E-01
RMM:   5    -0.231361793067E+04    0.32566E-03   -0.15255E-03  5125   0.272E-02    0.833E-02
RMM:   6    -0.231361781344E+04    0.11723E-03   -0.39348E-04  4728   0.135E-02    0.415E-02
RMM:   7    -0.231361777904E+04    0.34403E-04   -0.78179E-05  3363   0.956E-03    0.215E-02
RMM:   8    -0.231361776576E+04    0.13278E-04   -0.35275E-05  3030   0.490E-03    0.145E-02
RMM:   9    -0.231361775951E+04    0.62514E-05   -0.18663E-05  2881   0.444E-03
  33 F= -.23340355E+04 E0= -.23340355E+04  d E =-.293186E-01  mag=     3.0000
       N       E                     dE             d eps       ncg     rms          rms(c)
DAV:   1    -0.231361700507E+04    0.76069E-03   -0.38143E-01  4512   0.559E-01    0.222E-01
RMM:   2    -0.231362009388E+04   -0.30888E-02   -0.35540E-02  5899   0.107E-01    0.128E-01
RMM:   3    -0.231362024165E+04   -0.14777E-03   -0.39964E-03  5098   0.421E-02    0.100E-01
RMM:   4    -0.231362013385E+04    0.10780E-03   -0.49448E-04  4115   0.122E-02    0.559E-02
RMM:   5    -0.231362010017E+04    0.33679E-04   -0.18901E-04  3899   0.102E-02    0.322E-02
RMM:   6    -0.231362008304E+04    0.17124E-04   -0.46626E-05  3020   0.643E-03    0.138E-02
RMM:   7    -0.231362008025E+04    0.27933E-05   -0.11595E-05  2860   0.449E-03
  34 F= -.23340376E+04 E0= -.23340376E+04  d E =-.314364E-01  mag=     3.0000
       N       E                     dE             d eps       ncg     rms          rms(c)
DAV:   1    -0.231362594443E+04   -0.58614E-02   -0.93533E-02  4512   0.241E-01    0.890E-02
RMM:   2    -0.231362677321E+04   -0.82878E-03   -0.89040E-03  6048   0.466E-02    0.641E-02
RMM:   3    -0.231362681173E+04   -0.38518E-04   -0.89991E-04  3201   0.170E-02    0.442E-02
RMM:   4    -0.231362679583E+04    0.15901E-04   -0.11044E-04  2909   0.535E-03    0.248E-02
RMM:   5    -0.231362678964E+04    0.61817E-05   -0.30647E-05  2890   0.386E-03
  35 F= -.23340444E+04 E0= -.23340444E+04  d E =-.683900E-02  mag=     3.0000
       N       E                     dE             d eps       ncg     rms          rms(c)
DAV:   1    -0.231363706153E+04   -0.10266E-01   -0.83979E-01  4420   0.723E-01    0.269E-01
RMM:   2    -0.231364451252E+04   -0.74510E-02   -0.80344E-02  6040   0.136E-01    0.192E-01
RMM:   3    -0.231364485492E+04   -0.34240E-03   -0.83410E-03  5213   0.509E-02    0.132E-01
RMM:   4    -0.231364472210E+04    0.13281E-03   -0.10075E-03  3879   0.127E-02    0.755E-02
RMM:   5    -0.231364466949E+04    0.52614E-04   -0.25411E-04  3835   0.101E-02    0.360E-02
RMM:   6    -0.231364466292E+04    0.65642E-05   -0.61784E-05  3009   0.673E-03
  36 F= -.23340627E+04 E0= -.23340627E+04  d E =-.251010E-01  mag=     3.0000
       N       E                     dE             d eps       ncg     rms          rms(c)
DAV:   1    -0.231363990441E+04    0.47651E-02   -0.33605E+00  4408   0.144E+00    0.539E-01
RMM:   2    -0.231366960316E+04   -0.29699E-01   -0.32166E-01  6033   0.274E-01    0.372E-01
RMM:   3    -0.231367103476E+04   -0.14316E-02   -0.33080E-02  5676   0.990E-02    0.255E-01
RMM:   4    -0.231367056120E+04    0.47356E-03   -0.40288E-03  4882   0.244E-02    0.153E-01
RMM:   5    -0.231367035579E+04    0.20540E-03   -0.10071E-03  4875   0.183E-02    0.749E-02
RMM:   6    -0.231367031960E+04    0.36191E-04   -0.25296E-04  4316   0.106E-02    0.405E-02
RMM:   7    -0.231367030588E+04    0.13719E-04   -0.52255E-05  2920   0.629E-03    0.252E-02
RMM:   8    -0.231367030454E+04    0.13444E-05   -0.23864E-05  2885   0.354E-03
  37 F= -.23340891E+04 E0= -.23340891E+04  d E =-.515200E-01  mag=     3.0000
       N       E                     dE             d eps       ncg     rms          rms(c)
DAV:   1    -0.231356051333E+04    0.10979E+00   -0.13386E+01  4408   0.289E+00    0.107E+00
RMM:   2    -0.231367918869E+04   -0.11868E+00   -0.12954E+00  5976   0.559E-01    0.699E-01
RMM:   3    -0.231368483047E+04   -0.56418E-02   -0.13165E-01  5741   0.204E-01    0.478E-01
RMM:   4    -0.231368326703E+04    0.15634E-02   -0.15491E-02  5131   0.482E-02    0.309E-01
RMM:   5    -0.231368251942E+04    0.74761E-03   -0.41164E-03  5216   0.351E-02    0.161E-01
RMM:   6    -0.231368230049E+04    0.21893E-03   -0.10878E-03  4871   0.204E-02    0.802E-02
RMM:   7    -0.231368225113E+04    0.49357E-04   -0.22476E-04  3579   0.122E-02    0.519E-02
RMM:   8    -0.231368224815E+04    0.29848E-05   -0.10790E-04  3187   0.592E-03    0.399E-02
RMM:   9    -0.231368225769E+04   -0.95364E-05   -0.66131E-05  3050   0.591E-03
  38 F= -.23341026E+04 E0= -.23341026E+04  d E =-.650262E-01  mag=     3.0000
       N       E                     dE             d eps       ncg     rms          rms(c)
DAV:   1    -0.231368950014E+04   -0.72520E-02   -0.48500E-01  4776   0.516E-01    0.193E-01
RMM:   2    -0.231369364944E+04   -0.41493E-02   -0.43608E-02  6177   0.996E-02    0.113E-01
RMM:   3    -0.231369396392E+04   -0.31448E-03   -0.45200E-03  4597   0.340E-02    0.835E-02
RMM:   4    -0.231369393943E+04    0.24486E-04   -0.57584E-04  3048   0.953E-03    0.585E-02
RMM:   5    -0.231369391808E+04    0.21348E-04   -0.12687E-04  3105   0.728E-03    0.298E-02
RMM:   6    -0.231369392079E+04   -0.27114E-05   -0.31267E-05  2872   0.523E-03
  39 F= -.23341146E+04 E0= -.23341146E+04  d E =-.119915E-01  mag=     3.0000
       N       E                     dE             d eps       ncg     rms          rms(c)
DAV:   1    -0.231368542104E+04    0.84970E-02   -0.43507E+00  4408   0.154E+00    0.578E-01
RMM:   2    -0.231372241048E+04   -0.36989E-01   -0.39137E-01  6012   0.296E-01    0.321E-01
RMM:   3    -0.231372524645E+04   -0.28360E-02   -0.39990E-02  5660   0.103E-01    0.231E-01
RMM:   4    -0.231372511982E+04    0.12663E-03   -0.51026E-03  4822   0.256E-02    0.167E-01
RMM:   5    -0.231372492920E+04    0.19062E-03   -0.11380E-03  4712   0.184E-02    0.856E-02
RMM:   6    -0.231372490358E+04    0.25616E-04   -0.24114E-04  3849   0.102E-02    0.395E-02
RMM:   7    -0.231372490067E+04    0.29176E-05   -0.39765E-05  2920   0.536E-03
  40 F= -.23341466E+04 E0= -.23341466E+04  d E =-.439552E-01  mag=     3.0000
       N       E                     dE             d eps       ncg     rms          rms(c)
DAV:   1    -0.231360756693E+04    0.11734E+00   -0.17295E+01  4408   0.309E+00    0.116E+00
RMM:   2    -0.231375575739E+04   -0.14819E+00   -0.15774E+00  6044   0.599E-01    0.627E-01
RMM:   3    -0.231376766064E+04   -0.11903E-01   -0.16728E-01  5764   0.214E-01    0.459E-01
RMM:   4    -0.231376721131E+04    0.44932E-03   -0.20773E-02  5235   0.501E-02    0.332E-01
RMM:   5    -0.231376645916E+04    0.75216E-03   -0.45370E-03  5144   0.346E-02    0.187E-01
RMM:   6    -0.231376631047E+04    0.14869E-03   -0.10747E-03  4804   0.191E-02    0.827E-02
RMM:   7    -0.231376628084E+04    0.29625E-04   -0.19639E-04  3427   0.102E-02    0.550E-02
RMM:   8    -0.231376629570E+04   -0.14857E-04   -0.10404E-04  3009   0.610E-03    0.409E-02
RMM:   9    -0.231376631495E+04   -0.19247E-04   -0.45215E-05  2890   0.474E-03    0.314E-02
RMM:  10    -0.231376633822E+04   -0.23274E-04   -0.58664E-05  2894   0.493E-03    0.197E-02
RMM:  11    -0.231376634862E+04   -0.10397E-04   -0.30993E-05  2838   0.432E-03    0.125E-02
RMM:  12    -0.231376635438E+04   -0.57628E-05   -0.23688E-05  2827   0.318E-03
  41 F= -.23341900E+04 E0= -.23341900E+04  d E =-.873738E-01  mag=     3.0000
       N       E                     dE             d eps       ncg     rms          rms(c)
DAV:   1    -0.231309189193E+04    0.67446E+00   -0.67708E+01  4408   0.619E+00    0.233E+00
RMM:   2    -0.231370985567E+04   -0.61796E+00   -0.66233E+00  6068   0.124E+00    0.123E+00
RMM:   3    -0.231375428167E+04   -0.44426E-01   -0.65549E-01  5813   0.422E-01    0.923E-01
RMM:   4    -0.231375299034E+04    0.12913E-02   -0.86431E-02  5474   0.986E-02    0.681E-01
RMM:   5    -0.231374950730E+04    0.34830E-02   -0.18736E-02  5344   0.650E-02    0.413E-01
RMM:   6    -0.231374866745E+04    0.83985E-03   -0.57947E-03  4985   0.398E-02    0.161E-01
RMM:   7    -0.231374841515E+04    0.25230E-03   -0.86740E-04  4486   0.228E-02    0.107E-01
RMM:   8    -0.231374840683E+04    0.83238E-05   -0.54774E-04  3941   0.111E-02    0.739E-02
RMM:   9    -0.231374844274E+04   -0.35918E-04   -0.15344E-04  3126   0.743E-03    0.577E-02
RMM:  10    -0.231374849691E+04   -0.54165E-04   -0.13624E-04  3361   0.693E-03    0.386E-02
RMM:  11    -0.231374852937E+04   -0.32465E-04   -0.79907E-05  2889   0.601E-03    0.258E-02
RMM:  12    -0.231374855488E+04   -0.25507E-04   -0.69105E-05  2854   0.509E-03    0.172E-02
RMM:  13    -0.231374856108E+04   -0.62025E-05   -0.32128E-05  2849   0.442E-03
  42 F= -.23341762E+04 E0= -.23341762E+04  d E =-.735270E-01  mag=     3.0000
       N       E                     dE             d eps       ncg     rms          rms(c)
DAV:   1    -0.231352868632E+04    0.21987E+00   -0.26149E+01  4408   0.384E+00    0.141E+00
RMM:   2    -0.231376260334E+04   -0.23392E+00   -0.24846E+00  6037   0.750E-01    0.753E-01
RMM:   3    -0.231377836143E+04   -0.15758E-01   -0.23571E-01  5751   0.255E-01    0.531E-01
RMM:   4    -0.231377805648E+04    0.30495E-03   -0.29366E-02  5204   0.622E-02    0.342E-01
RMM:   5    -0.231377725237E+04    0.80411E-03   -0.50596E-03  5035   0.415E-02    0.187E-01
RMM:   6    -0.231377713171E+04    0.12066E-03   -0.14523E-03  4996   0.233E-02    0.136E-01
RMM:   7    -0.231377694896E+04    0.18274E-03   -0.52450E-04  3716   0.115E-02    0.645E-02
RMM:   8    -0.231377691300E+04    0.35968E-04   -0.10475E-04  2912   0.656E-03    0.409E-02
RMM:   9    -0.231377691478E+04   -0.17842E-05   -0.86715E-05  2995   0.544E-03
  43 F= -.23342021E+04 E0= -.23342021E+04  d E =-.994323E-01  mag=     3.0000
       N       E                     dE             d eps       ncg     rms          rms(c)
DAV:   1    -0.231378205451E+04   -0.51415E-02   -0.29677E+00  4424   0.126E+00    0.584E-01
RMM:   2    -0.231381813285E+04   -0.36078E-01   -0.38143E-01  6097   0.278E-01    0.276E-01
RMM:   3    -0.231382098761E+04   -0.28548E-02   -0.41329E-02  5500   0.101E-01    0.203E-01
RMM:   4    -0.231382114084E+04   -0.15322E-03   -0.48232E-03  5104   0.255E-02    0.166E-01
RMM:   5    -0.231382084728E+04    0.29356E-03   -0.85550E-04  4582   0.151E-02    0.886E-02
RMM:   6    -0.231382076697E+04    0.80310E-04   -0.29636E-04  4194   0.110E-02    0.246E-02
RMM:   7    -0.231382076057E+04    0.63984E-05   -0.40861E-05  2903   0.693E-03
  44 F= -.23342463E+04 E0= -.23342463E+04  d E =-.442516E-01  mag=     3.0000
       N       E                     dE             d eps       ncg     rms          rms(c)
DAV:   1    -0.231355440814E+04    0.26636E+00   -0.24056E+01  4408   0.357E+00    0.166E+00
RMM:   2    -0.231384928736E+04   -0.29488E+00   -0.31269E+00  6137   0.779E-01    0.808E-01
RMM:   3    -0.231387318343E+04   -0.23896E-01   -0.34644E-01  5626   0.283E-01    0.675E-01
RMM:   4    -0.231387227066E+04    0.91277E-03   -0.39569E-02  5977   0.691E-02    0.422E-01
RMM:   5    -0.231387096423E+04    0.13064E-02   -0.72828E-03  5062   0.376E-02    0.308E-01
RMM:   6    -0.231386994302E+04    0.10212E-02   -0.30748E-03  5221   0.290E-02    0.108E-01
RMM:   7    -0.231386982967E+04    0.11336E-03   -0.53227E-04  4678   0.168E-02    0.508E-02
RMM:   8    -0.231386977685E+04    0.52818E-04   -0.15964E-04  3395   0.819E-03    0.273E-02
RMM:   9    -0.231386976171E+04    0.15136E-04   -0.60374E-05  3037   0.597E-03    0.167E-02
RMM:  10    -0.231386975632E+04    0.53957E-05   -0.23224E-05  2896   0.486E-03
  45 F= -.23342964E+04 E0= -.23342964E+04  d E =-.943266E-01  mag=     3.0000
       N       E                     dE             d eps       ncg     rms          rms(c)
DAV:   1    -0.231385676420E+04    0.12998E-01   -0.40104E+00  4436   0.142E+00    0.672E-01
RMM:   2    -0.231391035075E+04   -0.53587E-01   -0.56204E-01  6219   0.311E-01    0.303E-01
RMM:   3    -0.231391465400E+04   -0.43032E-02   -0.56978E-02  5645   0.109E-01    0.211E-01
RMM:   4    -0.231391508091E+04   -0.42691E-03   -0.68615E-03  5073   0.268E-02    0.185E-01
RMM:   5    -0.231391475209E+04    0.32881E-03   -0.10010E-03  4658   0.148E-02    0.111E-01
RMM:   6    -0.231391464197E+04    0.11013E-03   -0.37475E-04  4181   0.116E-02    0.300E-02
RMM:   7    -0.231391463922E+04    0.27511E-05   -0.65602E-05  2906   0.704E-03
  46 F= -.23343416E+04 E0= -.23343416E+04  d E =-.452359E-01  mag=     3.0000
       N       E                     dE             d eps       ncg     rms          rms(c)
DAV:   1    -0.231357740610E+04    0.33724E+00   -0.25809E+01  4408   0.359E+00    0.172E+00
RMM:   2    -0.231393210984E+04   -0.35470E+00   -0.37279E+00  6241   0.809E-01    0.818E-01
RMM:   3    -0.231396231687E+04   -0.30207E-01   -0.38954E-01  5704   0.277E-01    0.738E-01
RMM:   4    -0.231396183530E+04    0.48158E-03   -0.46065E-02  5974   0.695E-02    0.462E-01
RMM:   5    -0.231396017789E+04    0.16574E-02   -0.72455E-03  5066   0.327E-02    0.328E-01
RMM:   6    -0.231395918283E+04    0.99506E-03   -0.34915E-03  5198   0.283E-02    0.133E-01
RMM:   7    -0.231395902783E+04    0.15500E-03   -0.85279E-04  4806   0.182E-02    0.567E-02
RMM:   8    -0.231395897315E+04    0.54681E-04   -0.18879E-04  3411   0.857E-03    0.311E-02
RMM:   9    -0.231395896290E+04    0.10248E-04   -0.80975E-05  3041   0.640E-03    0.192E-02
RMM:  10    -0.231395896200E+04    0.90036E-06   -0.25837E-05  2887   0.483E-03
  47 F= -.23343868E+04 E0= -.23343868E+04  d E =-.904232E-01  mag=     3.0000
       N       E                     dE             d eps       ncg     rms          rms(c)
DAV:   1    -0.231397014510E+04   -0.11182E-01   -0.31184E+00  4528   0.146E+00    0.590E-01
RMM:   2    -0.231400718636E+04   -0.37041E-01   -0.39756E-01  5979   0.287E-01    0.336E-01
RMM:   3    -0.231400961364E+04   -0.24273E-02   -0.38982E-02  5732   0.110E-01    0.251E-01
RMM:   4    -0.231400919154E+04    0.42210E-03   -0.44136E-03  5016   0.268E-02    0.153E-01
RMM:   5    -0.231400900068E+04    0.19086E-03   -0.93855E-04  4860   0.192E-02    0.863E-02
RMM:   6    -0.231400895109E+04    0.49589E-04   -0.34977E-04  4479   0.122E-02    0.365E-02
RMM:   7    -0.231400893258E+04    0.18516E-04   -0.48774E-05  2914   0.781E-03    0.166E-02
RMM:   8    -0.231400892795E+04    0.46306E-05   -0.16548E-05  2874   0.309E-03
  48 F= -.23344372E+04 E0= -.23344372E+04  d E =-.503510E-01  mag=     3.0000
       N       E                     dE             d eps       ncg     rms          rms(c)
DAV:   1    -0.231389166948E+04    0.11726E+00   -0.12477E+01  4408   0.294E+00    0.119E+00
RMM:   2    -0.231404260223E+04   -0.15093E+00   -0.16182E+00  5997   0.591E-01    0.675E-01
RMM:   3    -0.231405126504E+04   -0.86628E-02   -0.15449E-01  5797   0.215E-01    0.474E-01
RMM:   4    -0.231405003304E+04    0.12320E-02   -0.17747E-02  5055   0.527E-02    0.303E-01
RMM:   5    -0.231404922608E+04    0.80696E-03   -0.35472E-03  5325   0.369E-02    0.174E-01
RMM:   6    -0.231404899979E+04    0.22629E-03   -0.13491E-03  4880   0.227E-02    0.723E-02
RMM:   7    -0.231404892487E+04    0.74919E-04   -0.18241E-04  3746   0.143E-02    0.282E-02
RMM:   8    -0.231404891013E+04    0.14738E-04   -0.72232E-05  3110   0.494E-03    0.201E-02
RMM:   9    -0.231404890288E+04    0.72472E-05   -0.25077E-05  2868   0.445E-03
  49 F= -.23344778E+04 E0= -.23344778E+04  d E =-.910404E-01  mag=     3.0000
       N       E                     dE             d eps       ncg     rms          rms(c)
DAV:   1    -0.231401449940E+04    0.34411E-01   -0.60565E+00  4508   0.233E+00    0.920E-01
RMM:   2    -0.231408838700E+04   -0.73888E-01   -0.82595E-01  5892   0.454E-01    0.490E-01
RMM:   3    -0.231409139618E+04   -0.30092E-02   -0.84906E-02  5599   0.179E-01    0.295E-01
RMM:   4    -0.231409071838E+04    0.67780E-03   -0.91272E-03  4881   0.427E-02    0.206E-01
RMM:   5    -0.231409042204E+04    0.29634E-03   -0.21859E-03  5248   0.323E-02    0.160E-01
RMM:   6    -0.231409011632E+04    0.30572E-03   -0.85722E-04  4895   0.169E-02    0.693E-02
RMM:   7    -0.231409004685E+04    0.69474E-04   -0.10867E-04  3481   0.118E-02    0.234E-02
RMM:   8    -0.231409002976E+04    0.17088E-04   -0.46384E-05  3094   0.465E-03    0.175E-02
RMM:   9    -0.231409002044E+04    0.93186E-05   -0.21186E-05  2853   0.436E-03
  50 F= -.23345193E+04 E0= -.23345193E+04  d E =-.414363E-01  mag=     3.0000
       N       E                     dE             d eps       ncg     rms          rms(c)
DAV:   1    -0.231408898939E+04    0.10404E-02   -0.14068E-01  4904   0.355E-01    0.137E-01
RMM:   2    -0.231409067151E+04   -0.16821E-02   -0.18953E-02  6033   0.702E-02    0.687E-02
RMM:   3    -0.231409075850E+04   -0.86992E-04   -0.19942E-03  4255   0.273E-02    0.420E-02
RMM:   4    -0.231409074396E+04    0.14536E-04   -0.20553E-04  3158   0.743E-03    0.266E-02
RMM:   5    -0.231409073763E+04    0.63301E-05   -0.46581E-05  2974   0.595E-03
  51 F= -.23345200E+04 E0= -.23345200E+04  d E =-.421961E-01  mag=     3.0000
       N       E                     dE             d eps       ncg     rms          rms(c)
DAV:   1    -0.231409218880E+04   -0.14448E-02   -0.10088E+00  4480   0.105E+00    0.348E-01
[...]
RMM:   3    -0.231417336410E+04    0.29913E-06   -0.20624E-05  2730   0.474E-03
 157 F= -.23346216E+04 E0= -.23346216E+04  d E =-.687528E-04  mag=     3.0000
       N       E                     dE             d eps       ncg     rms          rms(c)
DAV:   1    -0.231417323970E+04    0.12470E-03   -0.16706E-02  4420   0.132E-01    0.454E-02
RMM:   2    -0.231417340314E+04   -0.16343E-03   -0.17099E-03  5671   0.240E-02    0.287E-02
RMM:   3    -0.231417340771E+04   -0.45729E-05   -0.15413E-04  2886   0.992E-03    0.221E-02
RMM:   4    -0.231417340214E+04    0.55679E-05   -0.21085E-05  2862   0.320E-03
 158 F= -.23346217E+04 E0= -.23346217E+04  d E =-.728640E-04  mag=     3.0000
       N       E                     dE             d eps       ncg     rms          rms(c)
DAV:   1    -0.231417336584E+04    0.41868E-04   -0.22760E-03  4896   0.490E-02    0.177E-02
RMM:   2    -0.231417338781E+04   -0.21970E-04   -0.22791E-04  3513   0.947E-03    0.152E-02
RMM:   3    -0.231417338784E+04   -0.27503E-07   -0.26383E-05  2813   0.549E-03
 159 F= -.23346217E+04 E0= -.23346217E+04  d E =-.717158E-04  mag=     3.0000
       N       E                     dE             d eps       ncg     rms          rms(c)
DAV:   1    -0.231417325251E+04    0.13530E-03   -0.16061E-02  4420   0.128E-01    0.427E-02
RMM:   2    -0.231417342000E+04   -0.16749E-03   -0.17379E-03  5665   0.232E-02    0.293E-02
RMM:   3    -0.231417342414E+04   -0.41445E-05   -0.15699E-04  2869   0.909E-03    0.208E-02
RMM:   4    -0.231417341924E+04    0.48998E-05   -0.20187E-05  2863   0.306E-03
 160 F= -.23346218E+04 E0= -.23346218E+04  d E =-.534368E-04  mag=     3.0000
       N       E                     dE             d eps       ncg     rms          rms(c)
DAV:   1    -0.231417339358E+04    0.30562E-04   -0.16421E-03  5072   0.411E-02    0.144E-02
RMM:   2    -0.231417341049E+04   -0.16907E-04   -0.17396E-04  3207   0.798E-03    0.129E-02
RMM:   3    -0.231417341056E+04   -0.77140E-07   -0.20031E-05  2722   0.469E-03
 161 F= -.23346218E+04 E0= -.23346218E+04  d E =-.519980E-04  mag=     3.0000
       N       E                     dE             d eps       ncg     rms          rms(c)
DAV:   1    -0.231417332405E+04    0.86431E-04   -0.14438E-02  4420   0.122E-01    0.419E-02
RMM:   2    -0.231417347085E+04   -0.14680E-03   -0.15310E-03  5609   0.225E-02    0.280E-02
RMM:   3    -0.231417347351E+04   -0.26572E-05   -0.13081E-04  2865   0.929E-03    0.207E-02
RMM:   4    -0.231417346871E+04    0.48052E-05   -0.18312E-05  2861   0.306E-03
 162 F= -.23346218E+04 E0= -.23346218E+04  d E =-.603023E-04  mag=     3.0000
       N       E                     dE             d eps       ncg     rms          rms(c)
DAV:   1    -0.231417345811E+04    0.15403E-04   -0.86852E-04  4984   0.302E-02    0.112E-02
RMM:   2    -0.231417346689E+04   -0.87835E-05   -0.91682E-05  2950   0.622E-03
 163 F= -.23346218E+04 E0= -.23346218E+04  d E =-.590408E-04  mag=     3.0000
       N       E                     dE             d eps       ncg     rms          rms(c)
DAV:   1    -0.231417339378E+04    0.64330E-04   -0.10690E-02  4420   0.106E-01    0.382E-02
RMM:   2    -0.231417350359E+04   -0.10981E-03   -0.11157E-03  5392   0.214E-02    0.317E-02
RMM:   3    -0.231417350163E+04    0.19585E-05   -0.10603E-04  2885   0.892E-03    0.194E-02
RMM:   4    -0.231417349699E+04    0.46404E-05   -0.13203E-05  2849   0.316E-03
 164 F= -.23346219E+04 E0= -.23346219E+04  d E =-.473102E-04  mag=     3.0000
       N       E                     dE             d eps       ncg     rms          rms(c)
DAV:   1    -0.231417348442E+04    0.17219E-04   -0.73511E-04  5072   0.279E-02    0.977E-03
RMM:   2    -0.231417349115E+04   -0.67381E-05   -0.74149E-05  2886   0.585E-03
 165 F= -.23346219E+04 E0= -.23346219E+04  d E =-.461798E-04  mag=     3.0000
       N       E                     dE             d eps       ncg     rms          rms(c)
DAV:   1    -0.231417342935E+04    0.55066E-04   -0.93060E-03  4420   0.980E-02    0.349E-02
RMM:   2    -0.231417352476E+04   -0.95408E-04   -0.95909E-04  5317   0.199E-02    0.312E-02
RMM:   3    -0.231417352213E+04    0.26272E-05   -0.94952E-05  2862   0.828E-03
 166 F= -.23346219E+04 E0= -.23346219E+04  d E =-.546872E-04  mag=     3.0000
       N       E                     dE             d eps       ncg     rms          rms(c)
DAV:   1    -0.231417349453E+04    0.30225E-04   -0.16078E-03  4840   0.408E-02    0.172E-02
RMM:   2    -0.231417350907E+04   -0.14533E-04   -0.16696E-04  3236   0.867E-03    0.112E-02
RMM:   3    -0.231417350967E+04   -0.60782E-06   -0.19551E-05  2818   0.478E-03
 167 F= -.23346219E+04 E0= -.23346219E+04  d E =-.522259E-04  mag=     3.0000
       N       E                     dE             d eps       ncg     rms          rms(c)
DAV:   1    -0.231417345826E+04    0.50804E-04   -0.92030E-03  4420   0.959E-02    0.322E-02
RMM:   2    -0.231417354780E+04   -0.89539E-04   -0.93617E-04  5316   0.181E-02    0.196E-02
RMM:   3    -0.231417355118E+04   -0.33762E-05   -0.86308E-05  2849   0.775E-03
 168 F= -.23346220E+04 E0= -.23346220E+04  d E =-.450631E-04  mag=     3.0000
       N       E                     dE             d eps       ncg     rms          rms(c)
DAV:   1    -0.231417354249E+04    0.53139E-05   -0.64823E-04  5104   0.256E-02    0.125E-02
RMM:   2    -0.231417354848E+04   -0.59972E-05   -0.73307E-05  2847   0.548E-03
 169 F= -.23346220E+04 E0= -.23346220E+04  d E =-.433346E-04  mag=     3.0000
       N       E                     dE             d eps       ncg     rms          rms(c)
DAV:   1    -0.231417349867E+04    0.43815E-04   -0.91403E-03  4420   0.963E-02    0.330E-02
RMM:   2    -0.231417358358E+04   -0.84912E-04   -0.90339E-04  5299   0.192E-02    0.159E-02
RMM:   3    -0.231417358900E+04   -0.54149E-05   -0.10390E-04  2857   0.870E-03    0.106E-02
RMM:   4    -0.231417358904E+04   -0.41429E-07   -0.13631E-05  2844   0.279E-03
 170 F= -.23346220E+04 E0= -.23346220E+04  d E =-.506652E-04  mag=     3.0000
       N       E                     dE             d eps       ncg     rms          rms(c)
DAV:   1    -0.231417357456E+04    0.14437E-04   -0.11769E-03  4720   0.347E-02    0.130E-02
RMM:   2    -0.231417358577E+04   -0.11204E-04   -0.11845E-04  3103   0.729E-03    0.970E-03
RMM:   3    -0.231417358659E+04   -0.82908E-06   -0.13941E-05  2682   0.427E-03
 171 F= -.23346220E+04 E0= -.23346220E+04  d E =-.518778E-04  mag=     3.0000
       N       E                     dE             d eps       ncg     rms          rms(c)
DAV:   1    -0.231417352510E+04    0.60666E-04   -0.81143E-03  4420   0.898E-02    0.309E-02
RMM:   2    -0.231417360340E+04   -0.78302E-04   -0.81644E-04  5270   0.167E-02    0.210E-02
RMM:   3    -0.231417360526E+04   -0.18612E-05   -0.67761E-05  2848   0.745E-03
 172 F= -.23346221E+04 E0= -.23346221E+04  d E =-.499606E-04  mag=     3.0000
       N       E                     dE             d eps       ncg     rms          rms(c)
DAV:   1    -0.231417354771E+04    0.55691E-04   -0.36534E-03  4448   0.605E-02    0.229E-02
RMM:   2    -0.231417358192E+04   -0.34207E-04   -0.37827E-04  4175   0.118E-02    0.126E-02
RMM:   3    -0.231417358325E+04   -0.13317E-05   -0.42348E-05  2836   0.570E-03
 173 F= -.23346221E+04 E0= -.23346221E+04  d E =-.491415E-04  mag=     3.0000
       N       E                     dE             d eps       ncg     rms          rms(c)
DAV:   1    -0.231417353462E+04    0.47298E-04   -0.63002E-03  4420   0.781E-02    0.268E-02
RMM:   2    -0.231417360261E+04   -0.67992E-04   -0.67817E-04  4932   0.147E-02    0.261E-02
RMM:   3    -0.231417360039E+04    0.22249E-05   -0.60688E-05  2839   0.627E-03
 174 F= -.23346221E+04 E0= -.23346221E+04  d E =-.464249E-04  mag=     3.0000
       N       E                     dE             d eps       ncg     rms          rms(c)
DAV:   1    -0.231417351103E+04    0.91577E-04   -0.70133E-03  4420   0.824E-02    0.287E-02
RMM:   2    -0.231417358169E+04   -0.70660E-04   -0.74262E-04  5081   0.155E-02    0.194E-02
RMM:   3    -0.231417358385E+04   -0.21519E-05   -0.68628E-05  2848   0.621E-03
 175 F= -.23346221E+04 E0= -.23346221E+04  d E =-.607329E-04  mag=     3.0000
       N       E                     dE             d eps       ncg     rms          rms(c)
DAV:   1    -0.231417354131E+04    0.40382E-04   -0.89121E-03  4420   0.936E-02    0.328E-02
RMM:   2    -0.231417362905E+04   -0.87733E-04   -0.92521E-04  5286   0.177E-02    0.192E-02
RMM:   3    -0.231417363222E+04   -0.31701E-05   -0.85357E-05  2853   0.711E-03
 176 F= -.23346222E+04 E0= -.23346222E+04  d E =-.597959E-04  mag=     3.0000
       N       E                     dE             d eps       ncg     rms          rms(c)
DAV:   1    -0.231417359658E+04    0.32461E-04   -0.34913E-03  4560   0.587E-02    0.226E-02
RMM:   2    -0.231417362939E+04   -0.32806E-04   -0.36140E-04  4001   0.115E-02    0.123E-02
RMM:   3    -0.231417363115E+04   -0.17595E-05   -0.42786E-05  2836   0.592E-03
 177 F= -.23346222E+04 E0= -.23346222E+04  d E =-.659352E-04  mag=     3.0000
       N       E                     dE             d eps       ncg     rms          rms(c)
DAV:   1    -0.231417360778E+04    0.21608E-04   -0.73713E-03  4420   0.855E-02    0.335E-02
RMM:   2    -0.231417369028E+04   -0.82496E-04   -0.77009E-04  5131   0.162E-02    0.393E-02
RMM:   3    -0.231417367815E+04    0.12133E-04   -0.70838E-05  2854   0.688E-03    0.150E-02
RMM:   4    -0.231417367564E+04    0.25039E-05   -0.95114E-06  2843   0.237E-03
 178 F= -.23346222E+04 E0= -.23346222E+04  d E =-.504989E-04  mag=     3.0000
       N       E                     dE             d eps       ncg     rms          rms(c)
DAV:   1    -0.231417363591E+04    0.42236E-04   -0.41089E-03  4512   0.639E-02    0.220E-02
RMM:   2    -0.231417367546E+04   -0.39554E-04   -0.42067E-04  4365   0.119E-02    0.133E-02
RMM:   3    -0.231417367718E+04   -0.17113E-05   -0.36919E-05  2845   0.609E-03
 179 F= -.23346223E+04 E0= -.23346223E+04  d E =-.565925E-04  mag=     3.0000
       N       E                     dE             d eps       ncg     rms          rms(c)
DAV:   1    -0.231417363842E+04    0.37049E-04   -0.57173E-03  4420   0.744E-02    0.255E-02
RMM:   2    -0.231417369761E+04   -0.59199E-04   -0.61461E-04  4828   0.140E-02    0.168E-02
RMM:   3    -0.231417369986E+04   -0.22501E-05   -0.57845E-05  2837   0.583E-03
 180 F= -.23346223E+04 E0= -.23346223E+04  d E =-.406181E-04  mag=     3.0000
       N       E                     dE             d eps       ncg     rms          rms(c)
DAV:   1    -0.231417356507E+04    0.13254E-03   -0.11581E-02  4420   0.106E-01    0.365E-02
RMM:   2    -0.231417368591E+04   -0.12084E-03   -0.12543E-03  5416   0.195E-02    0.255E-02
RMM:   3    -0.231417368840E+04   -0.24880E-05   -0.10600E-04  2851   0.761E-03    0.185E-02
RMM:   4    -0.231417368507E+04    0.33318E-05   -0.15668E-05  2855   0.271E-03
 181 F= -.23346223E+04 E0= -.23346223E+04  d E =-.513722E-04  mag=     3.0000
       N       E                     dE             d eps       ncg     rms          rms(c)
DAV:   1    -0.231417364204E+04    0.46359E-04   -0.70171E-03  4432   0.824E-02    0.283E-02
RMM:   2    -0.231417371747E+04   -0.75427E-04   -0.75897E-04  5041   0.152E-02    0.258E-02
RMM:   3    -0.231417371559E+04    0.18788E-05   -0.64733E-05  2847   0.676E-03
 182 F= -.23346224E+04 E0= -.23346224E+04  d E =-.528040E-04  mag=     3.0000
       N       E                     dE             d eps       ncg     rms          rms(c)
DAV:   1    -0.231417348224E+04    0.23523E-03   -0.20734E-02  4408   0.141E-01    0.489E-02
RMM:   2    -0.231417370063E+04   -0.21840E-03   -0.22489E-03  5657   0.257E-02    0.373E-02
RMM:   3    -0.231417370191E+04   -0.12713E-05   -0.19151E-04  2873   0.925E-03    0.252E-02
RMM:   4    -0.231417369531E+04    0.65977E-05   -0.26877E-05  2868   0.343E-03
 183 F= -.23346224E+04 E0= -.23346224E+04  d E =-.705805E-04  mag=     3.0000
       N       E                     dE             d eps       ncg     rms          rms(c)
DAV:   1    -0.231417360655E+04    0.95351E-04   -0.11729E-02  4420   0.106E-01    0.360E-02
RMM:   2    -0.231417373450E+04   -0.12794E-03   -0.13007E-03  5499   0.195E-02    0.307E-02
RMM:   3    -0.231417373346E+04    0.10363E-05   -0.10736E-04  2863   0.830E-03    0.191E-02
RMM:   4    -0.231417372979E+04    0.36720E-05   -0.15289E-05  2851   0.265E-03
 184 F= -.23346224E+04 E0= -.23346224E+04  d E =-.560078E-04  mag=     3.0000
       N       E                     dE             d eps       ncg     rms          rms(c)
DAV:   1    -0.231417362966E+04    0.10380E-03   -0.86720E-03  4432   0.911E-02    0.306E-02
RMM:   2    -0.231417372308E+04   -0.93425E-04   -0.96195E-04  5279   0.166E-02    0.238E-02
RMM:   3    -0.231417372419E+04   -0.11087E-05   -0.81594E-05  2857   0.710E-03
 185 F= -.23346224E+04 E0= -.23346224E+04  d E =-.689379E-04  mag=     3.0000
       N       E                     dE             d eps       ncg     rms          rms(c)
DAV:   1    -0.231417361189E+04    0.11119E-03   -0.13723E-02  4420   0.116E-01    0.417E-02
RMM:   2    -0.231417375803E+04   -0.14614E-03   -0.15143E-03  5545   0.216E-02    0.282E-02
RMM:   3    -0.231417376165E+04   -0.36178E-05   -0.13440E-04  2861   0.806E-03    0.207E-02
RMM:   4    -0.231417375715E+04    0.44930E-05   -0.18430E-05  2857   0.291E-03
 186 F= -.23346225E+04 E0= -.23346225E+04  d E =-.605290E-04  mag=     3.0000
       N       E                     dE             d eps       ncg     rms          rms(c)
DAV:   1    -0.231417368769E+04    0.73954E-04   -0.53892E-03  4536   0.724E-02    0.265E-02
RMM:   2    -0.231417374599E+04   -0.58292E-04   -0.59111E-04  4734   0.136E-02    0.235E-02
RMM:   3    -0.231417374502E+04    0.96210E-06   -0.55095E-05  2850   0.646E-03
 187 F= -.23346225E+04 E0= -.23346225E+04  d E =-.659149E-04  mag=     3.0000
       N       E                     dE             d eps       ncg     rms          rms(c)
DAV:   1    -0.231417358852E+04    0.15747E-03   -0.15404E-02  4436   0.120E-01    0.434E-02
RMM:   2    -0.231417376862E+04   -0.18010E-03   -0.18525E-03  5605   0.227E-02    0.319E-02
RMM:   3    -0.231417377139E+04   -0.27730E-05   -0.15393E-04  2870   0.825E-03    0.218E-02
RMM:   4    -0.231417376675E+04    0.46424E-05   -0.21282E-05  2861   0.302E-03
 188 F= -.23346226E+04 E0= -.23346226E+04  d E =-.551521E-04  mag=     3.0000
       N       E                     dE             d eps       ncg     rms          rms(c)
DAV:   1    -0.231417374467E+04    0.26724E-04   -0.10251E-03  4968   0.311E-02    0.121E-02
RMM:   2    -0.231417375668E+04   -0.12009E-04   -0.12199E-04  2985   0.647E-03    0.116E-02
RMM:   3    -0.231417375664E+04    0.35245E-07   -0.14030E-05  2601   0.393E-03
 189 F= -.23346226E+04 E0= -.23346226E+04  d E =-.539744E-04  mag=     3.0000
       N       E                     dE             d eps       ncg     rms          rms(c)
DAV:   1    -0.231417358726E+04    0.16942E-03   -0.16457E-02  4420   0.124E-01    0.460E-02
RMM:   2    -0.231417378531E+04   -0.19805E-03   -0.20473E-03  5661   0.233E-02    0.332E-02
RMM:   3    -0.231417378849E+04   -0.31775E-05   -0.16971E-04  2876   0.100E-02    0.232E-02
RMM:   4    -0.231417378265E+04    0.58418E-05   -0.21785E-05  2861   0.309E-03
 190 F= -.23346226E+04 E0= -.23346226E+04  d E =-.557609E-04  mag=     3.0000
       N       E                     dE             d eps       ncg     rms          rms(c)
DAV:   1    -0.231417376753E+04    0.20958E-04   -0.64112E-04  5008   0.247E-02    0.103E-02
RMM:   2    -0.231417377526E+04   -0.77351E-05   -0.80690E-05  2878   0.529E-03
 191 F= -.23346226E+04 E0= -.23346226E+04  d E =-.545271E-04  mag=     3.0000
       N       E                     dE             d eps       ncg     rms          rms(c)
DAV:   1    -0.231417368844E+04    0.79093E-04   -0.10446E-02  4420   0.988E-02    0.389E-02
RMM:   2    -0.231417381757E+04   -0.12914E-03   -0.13144E-03  5392   0.205E-02    0.332E-02
RMM:   3    -0.231417381671E+04    0.85853E-06   -0.12626E-04  2879   0.892E-03    0.200E-02
RMM:   4    -0.231417381229E+04    0.44210E-05   -0.15858E-05  2861   0.296E-03
 192 F= -.23346227E+04 E0= -.23346227E+04  d E =-.535283E-04  mag=     3.0000
       N       E                     dE             d eps       ncg     rms          rms(c)
DAV:   1    -0.231417379807E+04    0.18642E-04   -0.75712E-04  4936   0.267E-02    0.105E-02
RMM:   2    -0.231417380677E+04   -0.87023E-05   -0.94903E-05  2921   0.587E-03
 193 F= -.23346227E+04 E0= -.23346227E+04  d E =-.526426E-04  mag=     3.0000
       N       E                     dE             d eps       ncg     rms          rms(c)
DAV:   1    -0.231417373041E+04    0.67657E-04   -0.83960E-03  4420   0.880E-02    0.354E-02
RMM:   2    -0.231417383876E+04   -0.10835E-03   -0.10915E-03  5209   0.189E-02    0.319E-02
RMM:   3    -0.231417383660E+04    0.21644E-05   -0.10305E-04  2867   0.798E-03    0.178E-02
RMM:   4    -0.231417383297E+04    0.36248E-05   -0.12522E-05  2842   0.289E-03
 194 F= -.23346227E+04 E0= -.23346227E+04  d E =-.453612E-04  mag=     3.0000
       N       E                     dE             d eps       ncg     rms          rms(c)
DAV:   1    -0.231417381622E+04    0.20379E-04   -0.76825E-04  4832   0.267E-02    0.103E-02
RMM:   2    -0.231417382505E+04   -0.88305E-05   -0.96696E-05  2939   0.588E-03
 195 F= -.23346227E+04 E0= -.23346227E+04  d E =-.434680E-04  mag=     3.0000
       N       E                     dE             d eps       ncg     rms          rms(c)
DAV:   1    -0.231417375702E+04    0.59194E-04   -0.62236E-03  4420   0.735E-02    0.304E-02
RMM:   2    -0.231417384102E+04   -0.83993E-04   -0.83443E-04  4721   0.162E-02    0.292E-02
RMM:   3    -0.231417383930E+04    0.17136E-05   -0.85656E-05  2856   0.740E-03
 196 F= -.23346228E+04 E0= -.23346228E+04  d E =-.398561E-04  mag=     3.0000
       N       E                     dE             d eps       ncg     rms          rms(c)
DAV:   1    -0.231417381341E+04    0.27612E-04   -0.11661E-03  4744   0.318E-02    0.152E-02
RMM:   2    -0.231417382824E+04   -0.14835E-04   -0.16034E-04  3044   0.719E-03    0.107E-02
RMM:   3    -0.231417382900E+04   -0.76207E-06   -0.18501E-05  2744   0.410E-03
 197 F= -.23346228E+04 E0= -.23346228E+04  d E =-.407911E-04  mag=     3.0000
       N       E                     dE             d eps       ncg     rms          rms(c)
DAV:   1    -0.231417379131E+04    0.36930E-04   -0.61200E-03  4420   0.755E-02    0.296E-02
RMM:   2    -0.231417386270E+04   -0.71391E-04   -0.74540E-04  4987   0.151E-02    0.187E-02
RMM:   3    -0.231417386519E+04   -0.24848E-05   -0.65561E-05  2843   0.715E-03
 198 F= -.23346228E+04 E0= -.23346228E+04  d E =-.530772E-04  mag=     3.0000
       N       E                     dE             d eps       ncg     rms          rms(c)
DAV:   1    -0.231417383435E+04    0.28351E-04   -0.19056E-03  4736   0.422E-02    0.190E-02
RMM:   2    -0.231417385546E+04   -0.21107E-04   -0.23474E-04  3346   0.891E-03    0.107E-02
RMM:   3    -0.231417385646E+04   -0.10043E-05   -0.27527E-05  2823   0.484E-03
 199 F= -.23346228E+04 E0= -.23346228E+04  d E =-.538623E-04  mag=     3.0000
       N       E                     dE             d eps       ncg     rms          rms(c)
DAV:   1    -0.231417380718E+04    0.48277E-04   -0.71968E-03  4420   0.802E-02    0.312E-02
RMM:   2    -0.231417389622E+04   -0.89037E-04   -0.92430E-04  5084   0.162E-02    0.213E-02
RMM:   3    -0.231417389856E+04   -0.23488E-05   -0.77494E-05  2846   0.708E-03
 200 F= -.23346228E+04 E0= -.23346228E+04  d E =-.368856E-04  mag=     3.0000
       N       E                     dE             d eps       ncg     rms          rms(c)
DAV:   1    -0.231417389243E+04    0.37847E-05   -0.32486E-04  5048   0.172E-02    0.107E-02
RMM:   2    -0.231417389620E+04   -0.37661E-05   -0.48411E-05  2654   0.397E-03
 201 F= -.23346228E+04 E0= -.23346228E+04  d E =-.333950E-04  mag=     3.0000
