       N       E                     dE             d eps       ncg     rms          rms(c)
DAV:   1     0.120691314561E+05    0.12069E+05   -0.83043E+05  4640   0.140E+03
DAV:   2    -0.129895817706E+04   -0.13368E+05   -0.12864E+05  5120   0.317E+02
DAV:   3    -0.249161289850E+04   -0.11927E+04   -0.11833E+04  5520   0.101E+02
DAV:   4    -0.251650876663E+04   -0.24896E+02   -0.24776E+02  5680   0.175E+01
DAV:   5    -0.251718859477E+04   -0.67983E+00   -0.67875E+00  5920   0.253E+00    0.170E+02
RMM:   6    -0.147494166712E+04    0.10422E+04   -0.18895E+03  4495   0.375E+01    0.731E+01
RMM:   7    -0.165986195649E+04   -0.18492E+03   -0.26853E+02  5026   0.132E+01    0.570E+01
RMM:   8    -0.169395110136E+04   -0.34089E+02   -0.86148E+01  5232   0.786E+00    0.425E+01
RMM:   9    -0.176850773057E+04   -0.74557E+02   -0.63730E+01  4948   0.721E+00    0.334E+01
RMM:  10    -0.191026489014E+04   -0.14176E+03   -0.64672E+01  5236   0.756E+00    0.207E+01
RMM:  11    -0.201932007892E+04   -0.10906E+03   -0.45241E+01  4981   0.535E+00    0.162E+01
RMM:  12    -0.212585672126E+04   -0.10654E+03   -0.58252E+01  4704   0.572E+00    0.118E+01
RMM:  13    -0.222536148583E+04   -0.99505E+02   -0.73011E+01  4587   0.610E+00    0.962E+00
RMM:  14    -0.227815904395E+04   -0.52798E+02   -0.43670E+01  4759   0.481E+00    0.585E+00
RMM:  15    -0.229982612188E+04   -0.21667E+02   -0.21490E+01  4806   0.343E+00    0.264E+00
RMM:  16    -0.230456456587E+04   -0.47384E+01   -0.44389E+00  4915   0.166E+00    0.159E+00
RMM:  17    -0.230686253116E+04   -0.22980E+01   -0.16489E+00  4797   0.791E-01    0.102E+00
RMM:  18    -0.230757216215E+04   -0.70963E+00   -0.59077E-01  4686   0.576E-01    0.510E-01
RMM:  19    -0.230780478418E+04   -0.23262E+00   -0.19515E-01  4748   0.270E-01    0.293E-01
RMM:  20    -0.230786208090E+04   -0.57297E-01   -0.61839E-02  4792   0.157E-01    0.248E-01
RMM:  21    -0.230788050197E+04   -0.18421E-01   -0.12431E-02  4841   0.739E-02    0.246E-01
RMM:  22    -0.230789037389E+04   -0.98719E-02   -0.43290E-03  4683   0.498E-02    0.238E-01
RMM:  23    -0.230790220822E+04   -0.11834E-01   -0.59885E-03  4588   0.470E-02    0.309E-01
RMM:  24    -0.230790023532E+04    0.19729E-02   -0.85317E-04  4277   0.247E-02    0.195E-01
RMM:  25    -0.230790819692E+04   -0.79616E-02   -0.27361E-03  4495   0.334E-02    0.184E-01
RMM:  26    -0.230791109766E+04   -0.29007E-02   -0.24626E-03  4396   0.286E-02    0.226E-01
RMM:  27    -0.230791120265E+04   -0.10499E-03   -0.85853E-04  4031   0.157E-02    0.279E-01
RMM:  28    -0.230791438160E+04   -0.31789E-02   -0.56669E-03  4672   0.343E-02    0.207E-01
RMM:  29    -0.230791750649E+04   -0.31249E-02   -0.43087E-03  4561   0.342E-02    0.253E-01
RMM:  30    -0.230792028370E+04   -0.27772E-02   -0.44480E-03  5015   0.295E-02    0.586E-01
RMM:  31    -0.230792016311E+04    0.12059E-03   -0.56983E-04  4278   0.138E-02    0.250E-01
RMM:  32    -0.230792269562E+04   -0.25325E-02   -0.61654E-04  4089   0.156E-02    0.294E-01
RMM:  33    -0.230792445415E+04   -0.17585E-02   -0.85264E-04  4098   0.168E-02    0.184E-01
RMM:  34    -0.230792470587E+04   -0.25172E-03   -0.19612E-03  4633   0.198E-02    0.129E-01
RMM:  35    -0.230792455564E+04    0.15023E-03   -0.66363E-04  4170   0.127E-02    0.143E-01
RMM:  36    -0.230792434977E+04    0.20586E-03   -0.89167E-04  4439   0.123E-02    0.169E-01
RMM:  37    -0.230792374675E+04    0.60303E-03   -0.14209E-03  4433   0.162E-02    0.242E-01
RMM:  38    -0.230792342753E+04    0.31922E-03   -0.36475E-04  3763   0.950E-03    0.280E-01
RMM:  39    -0.230792320141E+04    0.22611E-03   -0.11443E-04  3270   0.552E-03    0.302E-01
RMM:  40    -0.230792320534E+04   -0.39219E-05   -0.10162E-05  2958   0.349E-03
   1 F= -.23283531E+04 E0= -.23283485E+04  d E =-.912340E-02  mag=     5.9589
       N       E                     dE             d eps       ncg     rms          rms(c)
DAV:   1    -0.230792753723E+04   -0.43358E-02   -0.21222E+00  4480   0.558E-01    0.367E-01
RMM:   2    -0.230792624475E+04    0.12925E-02   -0.16224E-02  4093   0.422E-02    0.191E-01
RMM:   3    -0.230792569180E+04    0.55295E-03   -0.18073E-03  4457   0.205E-02    0.133E-01
RMM:   4    -0.230792570709E+04   -0.15292E-04   -0.91282E-04  4277   0.114E-02    0.137E-01
RMM:   5    -0.230792552985E+04    0.17724E-03   -0.27624E-04  3374   0.826E-03    0.336E-02
RMM:   6    -0.230792561947E+04   -0.89622E-04   -0.47863E-05  2982   0.416E-03    0.147E-02
RMM:   7    -0.230792566453E+04   -0.45062E-04   -0.16222E-05  2891   0.298E-03    0.786E-03
RMM:   8    -0.230792567898E+04   -0.14445E-04   -0.48345E-06  2727   0.231E-03    0.330E-03
RMM:   9    -0.230792568838E+04   -0.94037E-05   -0.26835E-06  2595   0.166E-03
   2 F= -.23283552E+04 E0= -.23283534E+04  d E =-.366993E-02  mag=     5.9592
       N       E                     dE             d eps       ncg     rms          rms(c)
DAV:   1    -0.230792713005E+04   -0.14511E-02   -0.84557E+00  4480   0.107E+00    0.232E+00
RMM:   2    -0.230791856690E+04    0.85632E-02   -0.35920E-01  4792   0.237E-01    0.442E+00
RMM:   3    -0.230790729129E+04    0.11276E-01   -0.28905E-02  4699   0.759E-02    0.411E+00
RMM:   4    -0.230790828618E+04   -0.99489E-03   -0.13121E-01  4926   0.141E-01    0.269E+00
RMM:   5    -0.230787645547E+04    0.31831E-01   -0.54298E-02  5329   0.892E-02    0.240E+00
RMM:   6    -0.230786784521E+04    0.86103E-02   -0.38923E-02  4715   0.877E-02    0.239E+00
RMM:   7    -0.230784675152E+04    0.21094E-01   -0.27125E-02  4947   0.718E-02    0.258E+00
RMM:   8    -0.230787581391E+04   -0.29062E-01   -0.55535E-03  4547   0.385E-02    0.202E+00
RMM:   9    -0.230791077979E+04   -0.34966E-01   -0.39629E-02  4882   0.750E-02    0.122E+00
RMM:  10    -0.230793334289E+04   -0.22563E-01   -0.18742E-02  5056   0.590E-02    0.249E+00
RMM:  11    -0.230796232412E+04   -0.28981E-01   -0.14408E-02  5004   0.510E-02    0.324E+00
RMM:  12    -0.230794539603E+04    0.16928E-01   -0.16322E-03  4135   0.263E-02    0.235E+00
RMM:  13    -0.230792638494E+04    0.19011E-01   -0.43727E-03  4391   0.287E-02    0.156E+00
RMM:  14    -0.230790963729E+04    0.16748E-01   -0.10866E-02  4852   0.437E-02    0.886E-01
RMM:  15    -0.230790261567E+04    0.70216E-02   -0.57329E-03  4755   0.346E-02    0.904E-01
RMM:  16    -0.230789835253E+04    0.42631E-02   -0.36349E-03  4851   0.229E-02    0.941E-01
RMM:  17    -0.230789579852E+04    0.25540E-02   -0.14298E-03  4374   0.170E-02    0.978E-01
RMM:  18    -0.230789064907E+04    0.51494E-02   -0.24944E-03  4821   0.197E-02    0.110E+00
RMM:  19    -0.230789015281E+04    0.49626E-03   -0.23858E-04  3334   0.971E-03    0.111E+00
RMM:  20    -0.230788987442E+04    0.27839E-03   -0.33738E-05  2984   0.286E-03    0.112E+00
RMM:  21    -0.230789021703E+04   -0.34261E-03   -0.43839E-06  2870   0.226E-03    0.111E+00
RMM:  22    -0.230788660273E+04    0.36143E-02   -0.39054E-04  3846   0.799E-03    0.121E+00
RMM:  23    -0.230789382902E+04   -0.72263E-02   -0.14813E-03  4209   0.150E-02    0.101E+00
RMM:  24    -0.230791275262E+04   -0.18924E-01   -0.13287E-02  4840   0.459E-02    0.137E+00
RMM:  25    -0.230792267799E+04   -0.99254E-02   -0.76890E-03  4826   0.381E-02    0.180E+00
RMM:  26    -0.230792128717E+04    0.13908E-02   -0.66469E-04  3840   0.133E-02    0.158E+00
RMM:  27    -0.230792229582E+04   -0.10086E-02   -0.11368E-04  3117   0.444E-03    0.171E+00
RMM:  28    -0.230792152810E+04    0.76772E-03   -0.11301E-05  2794   0.321E-03    0.163E+00
RMM:  29    -0.230791986481E+04    0.16633E-02   -0.88643E-05  3092   0.405E-03    0.153E+00
RMM:  30    -0.230792188706E+04   -0.20222E-02   -0.12144E-04  3092   0.469E-03    0.167E+00
RMM:  31    -0.230792475320E+04   -0.28661E-02   -0.19381E-04  3372   0.574E-03    0.181E+00
RMM:  32    -0.230792385634E+04    0.89686E-03   -0.36332E-05  2781   0.388E-03    0.172E+00
RMM:  33    -0.230791943989E+04    0.44164E-02   -0.38725E-04  3799   0.781E-03    0.149E+00
RMM:  34    -0.230791794531E+04    0.14946E-02   -0.99769E-05  3011   0.583E-03    0.147E+00
RMM:  35    -0.230791716786E+04    0.77746E-03   -0.69571E-05  2986   0.375E-03    0.144E+00
RMM:  36    -0.230791343657E+04    0.37313E-02   -0.44912E-04  4107   0.876E-03    0.124E+00
RMM:  37    -0.230790960645E+04    0.38301E-02   -0.10747E-03  4331   0.133E-02    0.110E+00
RMM:  38    -0.230790681302E+04    0.27934E-02   -0.97964E-04  4215   0.130E-02    0.104E+00
RMM:  39    -0.230790524895E+04    0.15641E-02   -0.51902E-04  3875   0.982E-03    0.102E+00
RMM:  40    -0.230790351836E+04    0.17306E-02   -0.55159E-04  4108   0.983E-03    0.100E+00
RMM:  41    -0.230790143518E+04    0.20832E-02   -0.73858E-04  4253   0.116E-02    0.996E-01
RMM:  42    -0.230790043745E+04    0.99773E-03   -0.24366E-04  3496   0.772E-03    0.101E+00
RMM:  43    -0.230790018495E+04    0.25250E-03   -0.43574E-05  3014   0.427E-03    0.101E+00
RMM:  44    -0.230790032315E+04   -0.13820E-03   -0.41657E-06  2760   0.235E-03    0.101E+00
RMM:  45    -0.230790038885E+04   -0.65702E-04   -0.13489E-06  2492   0.128E-03    0.101E+00
RMM:  46    -0.230790035964E+04    0.29207E-04   -0.43681E-07  2296   0.958E-04    0.101E+00
RMM:  47    -0.230789976004E+04    0.59960E-03   -0.11235E-05  2598   0.164E-03    0.100E+00
RMM:  48    -0.230789995299E+04   -0.19295E-03   -0.41194E-06  2560   0.147E-03    0.101E+00
RMM:  49    -0.230789717171E+04    0.27813E-02   -0.76385E-04  4271   0.106E-02    0.104E+00
RMM:  50    -0.230789711679E+04    0.54923E-04   -0.45447E-05  2994   0.485E-03    0.104E+00
RMM:  51    -0.230789703155E+04    0.85246E-04   -0.84235E-06  2720   0.158E-03    0.104E+00
RMM:  52    -0.230789695991E+04    0.71639E-04   -0.60429E-06  2446   0.147E-03    0.104E+00
RMM:  53    -0.230789684434E+04    0.11557E-03   -0.85668E-07  1806   0.802E-04    0.104E+00
RMM:  54    -0.230789579448E+04    0.10499E-02   -0.10819E-04  3231   0.401E-03    0.106E+00
RMM:  55    -0.230789852485E+04   -0.27304E-02   -0.62553E-04  4047   0.978E-03    0.102E+00
RMM:  56    -0.230790535529E+04   -0.68304E-02   -0.48921E-03  4815   0.264E-02    0.104E+00
RMM:  57    -0.230790743386E+04   -0.20786E-02   -0.82261E-04  4050   0.146E-02    0.108E+00
RMM:  58    -0.230790803197E+04   -0.59811E-03   -0.19212E-04  3551   0.561E-03    0.108E+00
RMM:  59    -0.230790697044E+04    0.10615E-02   -0.11542E-04  3133   0.535E-03    0.105E+00
RMM:  60    -0.230790406445E+04    0.29060E-02   -0.12324E-03  4413   0.134E-02    0.100E+00
RMM:  61    -0.230790139612E+04    0.26683E-02   -0.12574E-03  4323   0.145E-02    0.101E+00
RMM:  62    -0.230789914275E+04    0.22534E-02   -0.71843E-04  4136   0.111E-02    0.102E+00
RMM:  63    -0.230790070566E+04   -0.15629E-02   -0.17129E-04  3295   0.667E-03    0.102E+00
RMM:  64    -0.230790118879E+04   -0.48313E-03   -0.48911E-05  2876   0.364E-03    0.101E+00
RMM:  65    -0.230790145513E+04   -0.26634E-03   -0.12280E-05  2673   0.237E-03    0.101E+00
RMM:  66    -0.230790157248E+04   -0.11735E-03   -0.22781E-06  2150   0.154E-03    0.102E+00
RMM:  67    -0.230790041019E+04    0.11623E-02   -0.54272E-05  2773   0.332E-03    0.979E-01
RMM:  68    -0.230790311633E+04   -0.27061E-02   -0.77401E-04  4242   0.105E-02    0.989E-01
RMM:  69    -0.230790238717E+04    0.72915E-03   -0.49626E-05  2891   0.467E-03    0.973E-01
RMM:  70    -0.230790145125E+04    0.93593E-03   -0.11430E-04  3244   0.450E-03    0.974E-01
RMM:  71    -0.230790172830E+04   -0.27705E-03   -0.74707E-06  2213   0.242E-03    0.980E-01
RMM:  72    -0.230790481469E+04   -0.30864E-02   -0.68520E-04  4118   0.989E-03    0.102E+00
RMM:  73    -0.230790429227E+04    0.52242E-03   -0.34158E-05  2822   0.444E-03    0.993E-01
RMM:  74    -0.230789905111E+04    0.52412E-02   -0.30134E-03  4684   0.207E-02    0.990E-01
RMM:  75    -0.230789809553E+04    0.95558E-03   -0.36397E-04  3569   0.110E-02    0.102E+00
RMM:  76    -0.230789881962E+04   -0.72409E-03   -0.38887E-05  2965   0.333E-03    0.101E+00
RMM:  77    -0.230790769391E+04   -0.88743E-02   -0.72689E-03  4801   0.318E-02    0.107E+00
RMM:  78    -0.230790751471E+04    0.17920E-03   -0.43993E-04  3465   0.146E-02    0.101E+00
RMM:  79    -0.230791276714E+04   -0.52524E-02   -0.25737E-03  4695   0.186E-02    0.124E+00
RMM:  80    -0.230791264268E+04    0.12447E-03   -0.17423E-04  3132   0.865E-03    0.116E+00
RMM:  81    -0.230791626659E+04   -0.36239E-02   -0.94927E-04  4343   0.114E-02    0.138E+00
RMM:  82    -0.230794317168E+04   -0.26905E-01   -0.17196E-02  5030   0.484E-02    0.281E+00
RMM:  83    -0.230795261794E+04   -0.94463E-02   -0.43183E-03  4611   0.325E-02    0.281E+00
RMM:  84    -0.230793797237E+04    0.14646E-01   -0.22453E-03  4501   0.185E-02    0.201E+00
RMM:  85    -0.230790861420E+04    0.29358E-01   -0.46662E-02  5091   0.795E-02    0.789E-01
RMM:  86    -0.230788945892E+04    0.19155E-01   -0.32002E-02  5043   0.727E-02    0.120E+00
RMM:  87    -0.230788449407E+04    0.49649E-02   -0.60517E-03  4868   0.336E-02    0.135E+00
RMM:  88    -0.230788443339E+04    0.60681E-04   -0.33909E-04  3797   0.843E-03    0.135E+00
RMM:  89    -0.230788680627E+04   -0.23729E-02   -0.45024E-04  3895   0.918E-03    0.128E+00
RMM:  90    -0.230788959686E+04   -0.27906E-02   -0.61968E-04  4174   0.104E-02    0.121E+00
RMM:  91    -0.230788646753E+04    0.31293E-02   -0.62169E-04  4080   0.104E-02    0.132E+00
RMM:  92    -0.230788313745E+04    0.33301E-02   -0.10025E-03  4367   0.125E-02    0.140E+00
RMM:  93    -0.230788244073E+04    0.69672E-03   -0.57698E-05  3033   0.572E-03    0.141E+00
RMM:  94    -0.230788241464E+04    0.26090E-04   -0.61789E-06  2715   0.157E-03    0.141E+00
RMM:  95    -0.230788198583E+04    0.42881E-03   -0.10577E-05  2723   0.184E-03    0.142E+00
RMM:  96    -0.230788686680E+04   -0.48810E-02   -0.94782E-04  4212   0.120E-02    0.128E+00
RMM:  97    -0.230789445375E+04   -0.75870E-02   -0.28177E-03  4697   0.218E-02    0.113E+00
RMM:  98    -0.230789940020E+04   -0.49465E-02   -0.17793E-03  4397   0.180E-02    0.112E+00
RMM:  99    -0.230789889654E+04    0.50366E-03   -0.12180E-04  3089   0.723E-03    0.111E+00
RMM: 100    -0.230789864891E+04    0.24763E-03   -0.12440E-05  2779   0.239E-03    0.111E+00
RMM: 101    -0.230789772978E+04    0.91913E-03   -0.24454E-05  2699   0.251E-03    0.110E+00
RMM: 102    -0.230789832837E+04   -0.59859E-03   -0.15897E-04  3296   0.488E-03    0.109E+00
RMM: 103    -0.230789757576E+04    0.75261E-03   -0.33686E-05  2780   0.334E-03    0.110E+00
RMM: 104    -0.230789667840E+04    0.89736E-03   -0.93403E-05  3133   0.408E-03    0.112E+00
RMM: 105    -0.230789681330E+04   -0.13490E-03   -0.58943E-06  2340   0.198E-03    0.112E+00
RMM: 106    -0.230789654520E+04    0.26810E-03   -0.18095E-05  2486   0.177E-03    0.113E+00
RMM: 107    -0.230789887359E+04   -0.23284E-02   -0.49155E-04  3913   0.852E-03    0.110E+00
RMM: 108    -0.230789959924E+04   -0.72565E-03   -0.11330E-04  3097   0.534E-03    0.109E+00
RMM: 109    -0.230789973940E+04   -0.14016E-03   -0.23263E-05  2774   0.282E-03    0.108E+00
RMM: 110    -0.230789919175E+04    0.54765E-03   -0.27530E-05  2563   0.246E-03    0.109E+00
RMM: 111    -0.230789955614E+04   -0.36439E-03   -0.11834E-05  2397   0.156E-03    0.108E+00
RMM: 112    -0.230789862708E+04    0.92905E-03   -0.48402E-05  2706   0.287E-03    0.108E+00
RMM: 113    -0.230789782219E+04    0.80490E-03   -0.42797E-05  2924   0.304E-03    0.108E+00
RMM: 114    -0.230789742432E+04    0.39786E-03   -0.95835E-06  2482   0.208E-03    0.108E+00
RMM: 115    -0.230789820966E+04   -0.78534E-03   -0.11857E-04  3006   0.397E-03    0.105E+00
RMM: 116    -0.230789991453E+04   -0.17049E-02   -0.50842E-04  4102   0.821E-03    0.101E+00
RMM: 117    -0.230789861828E+04    0.12963E-02   -0.13147E-04  3323   0.575E-03    0.102E+00
RMM: 118    -0.230790389398E+04   -0.52757E-02   -0.30026E-03  4702   0.202E-02    0.100E+00
RMM: 119    -0.230790436659E+04   -0.47262E-03   -0.26890E-04  3331   0.938E-03    0.984E-01
RMM: 120    -0.230790702659E+04   -0.26600E-02   -0.88400E-04  4353   0.113E-02    0.104E+00
RMM: 121    -0.230790367040E+04    0.33562E-02   -0.10270E-03  4549   0.129E-02    0.958E-01
RMM: 122    -0.230790774213E+04   -0.40717E-02   -0.16323E-03  4562   0.157E-02    0.103E+00
RMM: 123    -0.230790375622E+04    0.39859E-02   -0.15798E-03  4676   0.157E-02    0.938E-01
RMM: 124    -0.230789869561E+04    0.50606E-02   -0.34343E-03  4797   0.223E-02    0.986E-01
RMM: 125    -0.230789779137E+04    0.90424E-03   -0.43023E-04  3786   0.115E-02    0.101E+00
RMM: 126    -0.230789404048E+04    0.37509E-02   -0.15908E-03  4603   0.152E-02    0.109E+00
RMM: 127    -0.230792682933E+04   -0.32789E-01   -0.48470E-02  4979   0.825E-02    0.215E+00
RMM: 128    -0.230794950403E+04   -0.22675E-01   -0.19151E-02  5009   0.614E-02    0.289E+00
RMM: 129    -0.230794837336E+04    0.11307E-02   -0.24038E-03  4562   0.215E-02    0.255E+00
RMM: 130    -0.230792275881E+04    0.25615E-01   -0.13890E-02  4918   0.437E-02    0.124E+00
RMM: 131    -0.230789233391E+04    0.30425E-01   -0.62104E-02  5189   0.969E-02    0.115E+00
RMM: 132    -0.230788544281E+04    0.68911E-02   -0.96162E-03  4910   0.476E-02    0.137E+00
RMM: 133    -0.230788602409E+04   -0.58128E-03   -0.71655E-04  3865   0.109E-02    0.135E+00
RMM: 134    -0.230788056173E+04    0.54624E-02   -0.11834E-03  4505   0.159E-02    0.149E+00
RMM: 135    -0.230787930084E+04    0.12609E-02   -0.15853E-04  3359   0.696E-03    0.153E+00
RMM: 136    -0.230787982604E+04   -0.52520E-03   -0.14429E-05  2892   0.315E-03    0.151E+00
RMM: 137    -0.230787073242E+04    0.90936E-02   -0.26678E-03  4689   0.204E-02    0.177E+00
RMM: 138    -0.230787051335E+04    0.21907E-03   -0.15063E-04  3176   0.827E-03    0.178E+00
RMM: 139    -0.230787084967E+04   -0.33632E-03   -0.14972E-05  2797   0.228E-03    0.177E+00
RMM: 140    -0.230786928193E+04    0.15677E-02   -0.74014E-05  3079   0.433E-03    0.180E+00
RMM: 141    -0.230787386764E+04   -0.45857E-02   -0.56935E-04  3767   0.991E-03    0.169E+00
RMM: 142    -0.230787291937E+04    0.94827E-03   -0.25634E-04  3598   0.654E-03    0.175E+00
RMM: 143    -0.230787276214E+04    0.15723E-03   -0.14392E-05  2626   0.294E-03    0.175E+00
RMM: 144    -0.230787052509E+04    0.22371E-02   -0.15865E-04  3385   0.519E-03    0.181E+00
RMM: 145    -0.230787064629E+04   -0.12120E-03   -0.82019E-06  2658   0.247E-03    0.180E+00
RMM: 146    -0.230787756464E+04   -0.69183E-02   -0.22980E-03  4543   0.184E-02    0.156E+00
RMM: 147    -0.230788678088E+04   -0.92162E-02   -0.55058E-03  4928   0.297E-02    0.125E+00
RMM: 148    -0.230789407185E+04   -0.72910E-02   -0.54275E-03  4972   0.292E-02    0.104E+00
RMM: 149    -0.230789484761E+04   -0.77577E-03   -0.67327E-04  4179   0.129E-02    0.100E+00
RMM: 150    -0.230789713145E+04   -0.22838E-02   -0.84031E-04  4560   0.111E-02    0.938E-01
RMM: 151    -0.230789849467E+04   -0.13632E-02   -0.44489E-04  3855   0.954E-03    0.900E-01
RMM: 152    -0.230789640704E+04    0.20876E-02   -0.24827E-04  3517   0.688E-03    0.927E-01
RMM: 153    -0.230789593499E+04    0.47205E-03   -0.38330E-05  2892   0.349E-03    0.938E-01
RMM: 154    -0.230789593706E+04   -0.20713E-05   -0.33920E-06  2631   0.172E-03
   3 F= -.23283262E+04 E0= -.23283211E+04  d E =-.102932E-01  mag=     6.1519
       N       E                     dE             d eps       ncg     rms          rms(c)
DAV:   1    -0.230791353017E+04   -0.17595E-01   -0.41135E+00  4640   0.793E-01    0.763E-01
RMM:   2    -0.230791542482E+04   -0.18946E-02   -0.26261E-02  4326   0.624E-02    0.529E-01
RMM:   3    -0.230790943841E+04    0.59864E-02   -0.98911E-03  4780   0.454E-02    0.447E-01
RMM:   4    -0.230790682473E+04    0.26137E-02   -0.45498E-03  4749   0.292E-02    0.453E-01
RMM:   5    -0.230790503027E+04    0.17945E-02   -0.76926E-03  4825   0.357E-02    0.357E-01
RMM:   6    -0.230790488243E+04    0.14784E-03   -0.88660E-04  3789   0.143E-02    0.338E-01
RMM:   7    -0.230791143982E+04   -0.65574E-02   -0.26097E-03  4068   0.250E-02    0.690E-01
RMM:   8    -0.230791175731E+04   -0.31749E-03   -0.43226E-04  3934   0.941E-03    0.753E-01
RMM:   9    -0.230791188855E+04   -0.13124E-03   -0.11756E-02  4779   0.405E-02    0.410E-01
RMM:  10    -0.230790385529E+04    0.80333E-02   -0.27986E-02  4952   0.653E-02    0.766E-01
RMM:  11    -0.230791171348E+04   -0.78582E-02   -0.88653E-03  4847   0.424E-02    0.406E-01
RMM:  12    -0.230791352421E+04   -0.18107E-02   -0.27648E-03  4360   0.232E-02    0.274E-01
RMM:  13    -0.230791589342E+04   -0.23692E-02   -0.33013E-03  4722   0.219E-02    0.168E-01
RMM:  14    -0.230791741718E+04   -0.15238E-02   -0.23221E-03  4485   0.201E-02    0.144E-01
RMM:  15    -0.230791838592E+04   -0.96874E-03   -0.14416E-03  4476   0.162E-02    0.188E-01
RMM:  16    -0.230791891234E+04   -0.52643E-03   -0.65894E-04  4098   0.116E-02    0.229E-01
RMM:  17    -0.230791861747E+04    0.29487E-03   -0.13057E-04  3199   0.657E-03    0.187E-01
RMM:  18    -0.230791834813E+04    0.26934E-03   -0.90140E-04  4344   0.117E-02    0.204E-01
RMM:  19    -0.230791709321E+04    0.12549E-02   -0.35961E-03  4791   0.236E-02    0.293E-01
RMM:  20    -0.230791810858E+04   -0.10154E-02   -0.11485E-03  4475   0.149E-02    0.217E-01
RMM:  21    -0.230791938812E+04   -0.12795E-02   -0.38019E-03  4773   0.234E-02    0.174E-01
RMM:  22    -0.230792339824E+04   -0.40101E-02   -0.10317E-02  4987   0.378E-02    0.680E-01
RMM:  23    -0.230792231925E+04    0.10790E-02   -0.65224E-04  3687   0.184E-02    0.387E-01
RMM:  24    -0.230792271622E+04   -0.39697E-03   -0.19319E-04  3181   0.501E-03    0.535E-01
RMM:  25    -0.230792330021E+04   -0.58399E-03   -0.12838E-04  3214   0.499E-03    0.593E-01
RMM:  26    -0.230792353596E+04   -0.23575E-03   -0.36596E-05  2909   0.371E-03    0.605E-01
RMM:  27    -0.230792369134E+04   -0.15538E-03   -0.18812E-05  2808   0.268E-03    0.632E-01
RMM:  28    -0.230792330006E+04    0.39129E-03   -0.27051E-05  2650   0.258E-03    0.571E-01
RMM:  29    -0.230792386273E+04   -0.56267E-03   -0.57670E-05  2949   0.306E-03    0.676E-01
RMM:  30    -0.230792306125E+04    0.80148E-03   -0.10484E-04  2987   0.434E-03    0.530E-01
RMM:  31    -0.230792176203E+04    0.12992E-02   -0.59915E-04  4092   0.916E-03    0.380E-01
RMM:  32    -0.230792091271E+04    0.84932E-03   -0.58870E-04  3777   0.965E-03    0.302E-01
RMM:  33    -0.230792018707E+04    0.72564E-03   -0.86313E-04  4361   0.114E-02    0.231E-01
RMM:  34    -0.230791986685E+04    0.32022E-03   -0.34240E-04  3561   0.839E-03    0.221E-01
RMM:  35    -0.230791968498E+04    0.18187E-03   -0.15678E-04  3290   0.576E-03    0.210E-01
RMM:  36    -0.230791942855E+04    0.25644E-03   -0.19626E-04  3506   0.676E-03    0.197E-01
RMM:  37    -0.230791910654E+04    0.32201E-03   -0.33107E-04  3916   0.801E-03    0.195E-01
RMM:  38    -0.230791887639E+04    0.23015E-03   -0.19025E-04  3285   0.677E-03    0.202E-01
RMM:  39    -0.230791871172E+04    0.16468E-03   -0.10611E-04  3157   0.553E-03    0.209E-01
RMM:  40    -0.230791855369E+04    0.15803E-03   -0.77471E-05  3092   0.487E-03    0.216E-01
RMM:  41    -0.230791850739E+04    0.46297E-04   -0.18380E-05  2884   0.356E-03    0.220E-01
RMM:  42    -0.230791851049E+04   -0.31022E-05   -0.25055E-06  2559   0.181E-03
   4 F= -.23283485E+04 E0= -.23283414E+04  d E =-.141708E-01  mag=     5.8301
       N       E                     dE             d eps       ncg     rms          rms(c)
DAV:   1    -0.230793243711E+04   -0.13930E-01   -0.79495E+00  4480   0.100E+00    0.505E-01
RMM:   2    -0.230793296790E+04   -0.53079E-03   -0.24130E-02  3930   0.520E-02    0.327E-01
RMM:   3    -0.230793206348E+04    0.90442E-03   -0.38467E-03  4706   0.266E-02    0.257E-01
RMM:   4    -0.230793193625E+04    0.12723E-03   -0.20157E-03  4532   0.173E-02    0.339E-01
RMM:   5    -0.230793129380E+04    0.64245E-03   -0.74958E-04  4322   0.116E-02    0.278E-01
RMM:   6    -0.230793144022E+04   -0.14643E-03   -0.61958E-04  3958   0.106E-02    0.168E-01
RMM:   7    -0.230793192124E+04   -0.48102E-03   -0.17372E-03  4287   0.172E-02    0.186E-01
RMM:   8    -0.230793140638E+04    0.51486E-03   -0.18724E-03  4579   0.164E-02    0.215E-01
RMM:   9    -0.230793136726E+04    0.39122E-04   -0.12668E-04  3133   0.778E-03    0.223E-01
RMM:  10    -0.230793154928E+04   -0.18202E-03   -0.30410E-05  2864   0.295E-03    0.225E-01
RMM:  11    -0.230793197194E+04   -0.42266E-03   -0.44495E-04  3905   0.841E-03    0.240E-01
RMM:  12    -0.230793230684E+04   -0.33489E-03   -0.12758E-03  4363   0.143E-02    0.282E-01
RMM:  13    -0.230793238084E+04   -0.74004E-04   -0.35374E-04  3642   0.918E-03    0.292E-01
RMM:  14    -0.230793208848E+04    0.29236E-03   -0.97362E-04  4100   0.120E-02    0.233E-01
RMM:  15    -0.230793118921E+04    0.89927E-03   -0.39227E-03  4777   0.243E-02    0.310E-01
RMM:  16    -0.230793163404E+04   -0.44482E-03   -0.48775E-04  3998   0.124E-02    0.259E-01
RMM:  17    -0.230793165643E+04   -0.22396E-04   -0.20222E-04  3304   0.629E-03    0.199E-01
RMM:  18    -0.230793197755E+04   -0.32112E-03   -0.98469E-04  4395   0.119E-02    0.137E-01
RMM:  19    -0.230793225815E+04   -0.28060E-03   -0.99143E-04  4258   0.134E-02    0.104E-01
RMM:  20    -0.230793259713E+04   -0.33898E-03   -0.10573E-03  4514   0.131E-02    0.126E-01
RMM:  21    -0.230793253035E+04    0.66777E-04   -0.55895E-05  2993   0.584E-03    0.101E-01
RMM:  22    -0.230793246427E+04    0.66084E-04   -0.26000E-05  2745   0.260E-03    0.102E-01
RMM:  23    -0.230793211634E+04    0.34792E-03   -0.10141E-03  4310   0.118E-02    0.101E-01
RMM:  24    -0.230793154221E+04    0.57414E-03   -0.20044E-03  4608   0.178E-02    0.172E-01
RMM:  25    -0.230793194730E+04   -0.40509E-03   -0.53472E-04  4022   0.106E-02    0.135E-01
RMM:  26    -0.230793240004E+04   -0.45274E-03   -0.17429E-03  4603   0.162E-02    0.116E-01
RMM:  27    -0.230793328077E+04   -0.88073E-03   -0.28556E-03  4758   0.204E-02    0.246E-01
RMM:  28    -0.230793327692E+04    0.38487E-05   -0.27805E-04  3274   0.944E-03    0.206E-01
RMM:  29    -0.230793322511E+04    0.51806E-04   -0.29607E-05  2922   0.275E-03    0.203E-01
RMM:  30    -0.230793330076E+04   -0.75650E-04   -0.97646E-06  2720   0.209E-03    0.228E-01
RMM:  31    -0.230793336943E+04   -0.68669E-04   -0.85881E-06  2715   0.183E-03    0.245E-01
RMM:  32    -0.230793343135E+04   -0.61924E-04   -0.58076E-06  2691   0.170E-03    0.259E-01
RMM:  33    -0.230793342975E+04    0.16075E-05   -0.95602E-07  2300   0.120E-03
   5 F= -.23283632E+04 E0= -.23283516E+04  d E =-.232391E-01  mag=     5.5854
       N       E                     dE             d eps       ncg     rms          rms(c)
DAV:   1    -0.230806201974E+04   -0.12859E+00   -0.42247E+00  4480   0.723E-01    0.873E-01
RMM:   2    -0.230807671389E+04   -0.14694E-01   -0.59441E-02  4685   0.793E-02    0.188E+00
RMM:   3    -0.230806143098E+04    0.15283E-01   -0.85354E-03  5110   0.401E-02    0.151E+00
RMM:   4    -0.230806046251E+04    0.96847E-03   -0.71369E-03  4696   0.307E-02    0.707E-01
RMM:   5    -0.230805506028E+04    0.54022E-02   -0.84041E-03  4771   0.351E-02    0.371E-01
RMM:   6    -0.230805438983E+04    0.67045E-03   -0.31926E-03  4482   0.219E-02    0.492E-01
RMM:   7    -0.230805338140E+04    0.10084E-02   -0.23054E-03  4254   0.197E-02    0.250E-01
RMM:   8    -0.230805308466E+04    0.29674E-03   -0.53365E-04  4028   0.107E-02    0.198E-01
RMM:   9    -0.230805294576E+04    0.13890E-03   -0.33964E-04  3453   0.841E-03    0.157E-01
RMM:  10    -0.230805267386E+04    0.27189E-03   -0.29794E-04  3595   0.726E-03    0.128E-01
RMM:  11    -0.230805238815E+04    0.28571E-03   -0.19081E-04  3365   0.700E-03    0.999E-02
RMM:  12    -0.230805232880E+04    0.59346E-04   -0.53195E-05  2980   0.466E-03    0.991E-02
RMM:  13    -0.230805220862E+04    0.12018E-03   -0.10414E-04  3203   0.463E-03    0.953E-02
RMM:  14    -0.230805209996E+04    0.10866E-03   -0.97083E-05  3092   0.505E-03    0.100E-01
RMM:  15    -0.230805232704E+04   -0.22708E-03   -0.23492E-04  3234   0.618E-03    0.106E-01
RMM:  16    -0.230805223676E+04    0.90283E-04   -0.36635E-05  2743   0.323E-03    0.964E-02
RMM:  17    -0.230805203892E+04    0.19784E-03   -0.92498E-04  4343   0.113E-02    0.153E-01
RMM:  18    -0.230805053904E+04    0.14999E-02   -0.40347E-03  4778   0.240E-02    0.350E-01
RMM:  19    -0.230805179694E+04   -0.12579E-02   -0.13463E-03  4557   0.156E-02    0.193E-01
RMM:  20    -0.230805144049E+04    0.35645E-03   -0.13812E-04  3182   0.672E-03    0.225E-01
RMM:  21    -0.230805252763E+04   -0.10871E-02   -0.30564E-03  4666   0.200E-02    0.990E-02
RMM:  22    -0.230805333663E+04   -0.80899E-03   -0.26378E-03  4616   0.208E-02    0.214E-01
RMM:  23    -0.230805666990E+04   -0.33333E-02   -0.39407E-03  4803   0.231E-02    0.802E-01
RMM:  24    -0.230805666920E+04    0.70386E-06   -0.48977E-04  3498   0.130E-02    0.639E-01
RMM:  25    -0.230805664441E+04    0.24785E-04   -0.89531E-05  3006   0.363E-03    0.684E-01
RMM:  26    -0.230805688205E+04   -0.23764E-03   -0.13588E-05  2864   0.265E-03    0.708E-01
RMM:  27    -0.230806030513E+04   -0.34231E-02   -0.71697E-04  4252   0.986E-03    0.119E+00
RMM:  28    -0.230806012314E+04    0.18199E-03   -0.94693E-05  2988   0.626E-03    0.991E-01
RMM:  29    -0.230806029575E+04   -0.17261E-03   -0.23624E-05  2769   0.241E-03    0.109E+00
RMM:  30    -0.230806007171E+04    0.22404E-03   -0.40063E-06  2451   0.179E-03    0.103E+00
RMM:  31    -0.230805938854E+04    0.68317E-03   -0.24594E-05  2629   0.204E-03    0.964E-01
RMM:  32    -0.230805698037E+04    0.24082E-02   -0.45531E-04  3875   0.774E-03    0.620E-01
RMM:  33    -0.230805518029E+04    0.18001E-02   -0.58706E-04  3818   0.969E-03    0.453E-01
RMM:  34    -0.230805454197E+04    0.63832E-03   -0.28874E-04  3344   0.664E-03    0.395E-01
RMM:  35    -0.230805493801E+04   -0.39604E-03   -0.33994E-05  2849   0.377E-03    0.496E-01
RMM:  36    -0.230805554249E+04   -0.60447E-03   -0.85686E-05  3029   0.372E-03    0.578E-01
RMM:  37    -0.230805545121E+04    0.91280E-04   -0.54573E-06  2430   0.183E-03    0.530E-01
RMM:  38    -0.230805505251E+04    0.39870E-03   -0.32948E-05  2645   0.220E-03    0.468E-01
RMM:  39    -0.230805488249E+04    0.17002E-03   -0.14537E-05  2477   0.174E-03    0.458E-01
RMM:  40    -0.230805495835E+04   -0.75860E-04   -0.12868E-06  2188   0.104E-03    0.478E-01
RMM:  41    -0.230805485984E+04    0.98507E-04   -0.24781E-06  1638   0.807E-04    0.452E-01
RMM:  42    -0.230805468682E+04    0.17303E-03   -0.10970E-05  2626   0.149E-03    0.425E-01
RMM:  43    -0.230805463527E+04    0.51548E-04   -0.25741E-06  2022   0.104E-03    0.423E-01
RMM:  44    -0.230805448767E+04    0.14760E-03   -0.10011E-05  2588   0.143E-03    0.392E-01
RMM:  45    -0.230805430419E+04    0.18348E-03   -0.15680E-05  2772   0.182E-03    0.361E-01
RMM:  46    -0.230805412272E+04    0.18147E-03   -0.20128E-05  2786   0.214E-03    0.329E-01
RMM:  47    -0.230805380333E+04    0.31939E-03   -0.72400E-05  3103   0.344E-03    0.264E-01
RMM:  48    -0.230805351531E+04    0.28802E-03   -0.88705E-05  3051   0.405E-03    0.215E-01
RMM:  49    -0.230805326034E+04    0.25498E-03   -0.12823E-04  3214   0.479E-03    0.167E-01
RMM:  50    -0.230805306936E+04    0.19097E-03   -0.11486E-04  3118   0.506E-03    0.135E-01
RMM:  51    -0.230805294044E+04    0.12893E-03   -0.92791E-05  3054   0.476E-03    0.117E-01
RMM:  52    -0.230805287180E+04    0.68637E-04   -0.43407E-05  2919   0.398E-03    0.110E-01
RMM:  53    -0.230805286359E+04    0.82089E-05   -0.68880E-06  2653   0.241E-03
   6 F= -.23284800E+04 E0= -.23284708E+04  d E =-.183623E-01  mag=     5.7133
       N       E                     dE             d eps       ncg     rms          rms(c)
DAV:   1    -0.230776846199E+04    0.28441E+00   -0.90547E+00  4480   0.978E-01    0.122E+00
RMM:   2    -0.230775915856E+04    0.93034E-02   -0.13501E-01  4923   0.114E-01    0.169E+00
RMM:   3    -0.230774225626E+04    0.16902E-01   -0.31668E-02  5191   0.779E-02    0.977E-01
RMM:   4    -0.230774005005E+04    0.22062E-02   -0.14040E-02  4822   0.434E-02    0.141E+00
RMM:   5    -0.230773952159E+04    0.52846E-03   -0.59420E-03  4503   0.322E-02    0.637E-01
RMM:   6    -0.230773642229E+04    0.30993E-02   -0.94640E-03  4679   0.380E-02    0.312E-01
RMM:   7    -0.230773532536E+04    0.10969E-02   -0.45274E-03  4692   0.273E-02    0.304E-01
RMM:   8    -0.230773427540E+04    0.10500E-02   -0.20365E-03  4526   0.158E-02    0.270E-01
RMM:   9    -0.230773352456E+04    0.75084E-03   -0.57750E-04  4016   0.113E-02    0.283E-01
RMM:  10    -0.230773440484E+04   -0.88028E-03   -0.40612E-04  3824   0.866E-03    0.277E-01
RMM:  11    -0.230773537333E+04   -0.96849E-03   -0.13855E-03  4480   0.141E-02    0.256E-01
RMM:  12    -0.230773572055E+04   -0.34722E-03   -0.37778E-04  3568   0.868E-03    0.257E-01
RMM:  13    -0.230773554206E+04    0.17849E-03   -0.30614E-05  2960   0.367E-03    0.241E-01
RMM:  14    -0.230773273194E+04    0.28101E-02   -0.10373E-02  4877   0.377E-02    0.353E-01
RMM:  15    -0.230772740585E+04    0.53261E-02   -0.14211E-02  5086   0.490E-02    0.724E-01
RMM:  16    -0.230773489920E+04   -0.74934E-02   -0.19431E-02  4967   0.544E-02    0.367E-01
RMM:  17    -0.230773782328E+04   -0.29241E-02   -0.11721E-02  5055   0.461E-02    0.527E-01
RMM:  18    -0.230774295482E+04   -0.51315E-02   -0.10814E-02  5187   0.366E-02    0.977E-01
RMM:  19    -0.230774318791E+04   -0.23309E-03   -0.10102E-03  4031   0.166E-02    0.875E-01
RMM:  20    -0.230774365858E+04   -0.47067E-03   -0.21894E-04  3305   0.488E-03    0.947E-01
RMM:  21    -0.230774328103E+04    0.37754E-03   -0.14481E-05  2950   0.355E-03    0.887E-01
RMM:  22    -0.230774191525E+04    0.13658E-02   -0.15152E-04  3284   0.502E-03    0.748E-01
RMM:  23    -0.230773847303E+04    0.34422E-02   -0.22985E-03  4576   0.185E-02    0.338E-01
RMM:  24    -0.230773568262E+04    0.27904E-02   -0.55243E-03  4865   0.295E-02    0.185E-01
RMM:  25    -0.230773419952E+04    0.14831E-02   -0.41567E-03  4784   0.263E-02    0.224E-01
RMM:  26    -0.230773235552E+04    0.18440E-02   -0.47829E-03  4892   0.258E-02    0.337E-01
RMM:  27    -0.230772917874E+04    0.31768E-02   -0.58768E-03  4940   0.314E-02    0.566E-01
RMM:  28    -0.230772663703E+04    0.25417E-02   -0.26573E-03  4723   0.212E-02    0.730E-01
RMM:  29    -0.230772705837E+04   -0.42134E-03   -0.16234E-04  3214   0.721E-03    0.706E-01
RMM:  30    -0.230772777448E+04   -0.71611E-03   -0.90288E-05  3099   0.458E-03    0.660E-01
RMM:  31    -0.230772887376E+04   -0.10993E-02   -0.28299E-04  3712   0.693E-03    0.587E-01
RMM:  32    -0.230772945889E+04   -0.58512E-03   -0.10717E-04  3115   0.490E-03    0.547E-01
RMM:  33    -0.230773167306E+04   -0.22142E-02   -0.16306E-03  4538   0.160E-02    0.401E-01
RMM:  34    -0.230773301360E+04   -0.13405E-02   -0.12608E-03  4242   0.157E-02    0.329E-01
RMM:  35    -0.230773379654E+04   -0.78294E-03   -0.76791E-04  4303   0.118E-02    0.305E-01
RMM:  36    -0.230773416038E+04   -0.36384E-03   -0.29148E-04  3578   0.796E-03    0.295E-01
RMM:  37    -0.230773419573E+04   -0.35355E-04   -0.37718E-05  2994   0.404E-03    0.292E-01
RMM:  38    -0.230773421906E+04   -0.23324E-04   -0.44530E-06  2778   0.204E-03    0.293E-01
RMM:  39    -0.230773424614E+04   -0.27086E-04   -0.21848E-06  2644   0.159E-03    0.293E-01
RMM:  40    -0.230773425407E+04   -0.79269E-05   -0.75319E-07  2403   0.112E-03
   7 F= -.23281665E+04 E0= -.23281589E+04  d E =-.151896E-01  mag=     5.8455
       N       E                     dE             d eps       ncg     rms          rms(c)
DAV:   1    -0.230795286319E+04   -0.21862E+00   -0.48687E+00  4480   0.762E-01    0.778E-01
RMM:   2    -0.230794343909E+04    0.94241E-02   -0.43343E-02  4326   0.640E-02    0.523E-01
RMM:   3    -0.230794365197E+04   -0.21288E-03   -0.11860E-02  5215   0.468E-02    0.819E-01
RMM:   4    -0.230793982378E+04    0.38282E-02   -0.46881E-03  4896   0.270E-02    0.713E-01
RMM:   5    -0.230794007330E+04   -0.24953E-03   -0.17474E-03  4167   0.177E-02    0.474E-01
RMM:   6    -0.230793922730E+04    0.84600E-03   -0.27449E-03  4285   0.212E-02    0.311E-01
RMM:   7    -0.230793819789E+04    0.10294E-02   -0.20288E-03  4465   0.210E-02    0.282E-01
RMM:   8    -0.230793739330E+04    0.80459E-03   -0.13729E-03  4372   0.147E-02    0.344E-01
RMM:   9    -0.230793823681E+04   -0.84351E-03   -0.44525E-04  3919   0.945E-03    0.297E-01
RMM:  10    -0.230793915277E+04   -0.91596E-03   -0.27791E-03  4674   0.196E-02    0.201E-01
RMM:  11    -0.230793987049E+04   -0.71772E-03   -0.23556E-03  4544   0.193E-02    0.224E-01
RMM:  12    -0.230794080228E+04   -0.93179E-03   -0.25042E-03  4708   0.196E-02    0.362E-01
RMM:  13    -0.230793947087E+04    0.13314E-02   -0.56198E-03  4736   0.288E-02    0.142E-01
RMM:  14    -0.230793836079E+04    0.11101E-02   -0.27991E-03  4595   0.231E-02    0.248E-01
RMM:  15    -0.230793732853E+04    0.10323E-02   -0.21482E-03  4858   0.176E-02    0.335E-01
RMM:  16    -0.230793663459E+04    0.69395E-03   -0.65867E-04  4054   0.117E-02    0.394E-01
RMM:  17    -0.230793772947E+04   -0.10949E-02   -0.68398E-04  4068   0.107E-02    0.314E-01
RMM:  18    -0.230793919063E+04   -0.14612E-02   -0.37488E-03  4744   0.233E-02    0.233E-01
RMM:  19    -0.230793953184E+04   -0.34121E-03   -0.92357E-04  4112   0.138E-02    0.215E-01
RMM:  20    -0.230794007266E+04   -0.54082E-03   -0.87396E-04  4413   0.116E-02    0.253E-01
RMM:  21    -0.230793993550E+04    0.13716E-03   -0.48950E-05  2991   0.611E-03    0.224E-01
RMM:  22    -0.230793958059E+04    0.35490E-03   -0.31285E-04  3715   0.688E-03    0.212E-01
RMM:  23    -0.230793886257E+04    0.71802E-03   -0.14647E-03  4474   0.145E-02    0.223E-01
RMM:  24    -0.230793782845E+04    0.10341E-02   -0.25750E-03  4625   0.190E-02    0.312E-01
RMM:  25    -0.230793867968E+04   -0.85123E-03   -0.92627E-04  4376   0.132E-02    0.255E-01
RMM:  26    -0.230793887575E+04   -0.19607E-03   -0.26618E-04  3464   0.725E-03    0.227E-01
RMM:  27    -0.230794011970E+04   -0.12440E-02   -0.36901E-03  4757   0.227E-02    0.258E-01
RMM:  28    -0.230794126296E+04   -0.11433E-02   -0.24694E-03  4539   0.209E-02    0.365E-01
RMM:  29    -0.230794139362E+04   -0.13067E-03   -0.34391E-04  3528   0.881E-03    0.346E-01
RMM:  30    -0.230794137804E+04    0.15585E-04   -0.26438E-05  2956   0.344E-03    0.346E-01
RMM:  31    -0.230794131943E+04    0.58607E-04   -0.41433E-06  2734   0.193E-03    0.339E-01
RMM:  32    -0.230794124742E+04    0.72009E-04   -0.51111E-06  2477   0.144E-03    0.333E-01
RMM:  33    -0.230794179691E+04   -0.54948E-03   -0.17797E-04  3331   0.494E-03    0.413E-01
RMM:  34    -0.230794171678E+04    0.80130E-04   -0.94926E-06  2632   0.260E-03    0.381E-01
RMM:  35    -0.230794181640E+04   -0.99619E-04   -0.77892E-06  2399   0.137E-03    0.403E-01
RMM:  36    -0.230794211132E+04   -0.29493E-03   -0.49232E-05  2982   0.282E-03    0.439E-01
RMM:  37    -0.230794236372E+04   -0.25240E-03   -0.42792E-05  2915   0.288E-03    0.462E-01
RMM:  38    -0.230794238878E+04   -0.25057E-04   -0.72365E-06  2574   0.205E-03    0.458E-01
RMM:  39    -0.230794239935E+04   -0.10570E-04   -0.11919E-06  2063   0.925E-04    0.460E-01
RMM:  40    -0.230794229571E+04    0.10363E-03   -0.41383E-06  2031   0.118E-03    0.445E-01
RMM:  41    -0.230794228528E+04    0.10433E-04   -0.43667E-07  1364   0.678E-04    0.448E-01
RMM:  42    -0.230794228454E+04    0.73966E-06   -0.12280E-07  1126   0.527E-04
   8 F= -.23283726E+04 E0= -.23283603E+04  d E =-.244891E-01  mag=     5.5534
       N       E                     dE             d eps       ncg     rms          rms(c)
DAV:   1    -0.230789513960E+04    0.47146E-01   -0.86007E+00  4480   0.862E-01    0.909E-01
RMM:   2    -0.230789658807E+04   -0.14485E-02   -0.54420E-02  4470   0.752E-02    0.179E+00
RMM:   3    -0.230789393658E+04    0.26515E-02   -0.32682E-03  3829   0.341E-02    0.108E+00
RMM:   4    -0.230789905143E+04   -0.51148E-02   -0.17540E-02  5212   0.454E-02    0.153E+00
RMM:   5    -0.230788804395E+04    0.11007E-01   -0.71183E-03  5400   0.325E-02    0.837E-01
RMM:   6    -0.230788805297E+04   -0.90218E-05   -0.19292E-03  4328   0.179E-02    0.893E-01
RMM:   7    -0.230788679148E+04    0.12615E-02   -0.12972E-03  4147   0.163E-02    0.632E-01
RMM:   8    -0.230788693791E+04   -0.14642E-03   -0.46824E-04  3826   0.112E-02    0.708E-01
RMM:   9    -0.230788690189E+04    0.36014E-04   -0.16009E-04  3445   0.685E-03    0.609E-01
RMM:  10    -0.230788674311E+04    0.15878E-03   -0.28700E-04  3534   0.784E-03    0.536E-01
RMM:  11    -0.230788625517E+04    0.48794E-03   -0.34099E-04  3732   0.822E-03    0.427E-01
RMM:  12    -0.230788589499E+04    0.36018E-03   -0.96524E-05  3130   0.608E-03    0.393E-01
RMM:  13    -0.230788562268E+04    0.27231E-03   -0.64803E-05  3068   0.429E-03    0.357E-01
RMM:  14    -0.230788508982E+04    0.53286E-03   -0.22519E-04  3678   0.677E-03    0.272E-01
RMM:  15    -0.230788461331E+04    0.47651E-03   -0.35592E-04  3874   0.823E-03    0.220E-01
RMM:  16    -0.230788452194E+04    0.91368E-04   -0.56886E-05  3024   0.512E-03    0.216E-01
RMM:  17    -0.230788425805E+04    0.26390E-03   -0.14800E-04  3495   0.551E-03    0.173E-01
RMM:  18    -0.230788402682E+04    0.23123E-03   -0.17287E-04  3285   0.629E-03    0.160E-01
RMM:  19    -0.230788370119E+04    0.32563E-03   -0.44939E-04  4147   0.880E-03    0.155E-01
RMM:  20    -0.230788352614E+04    0.17505E-03   -0.18018E-04  3216   0.678E-03    0.167E-01
RMM:  21    -0.230788307389E+04    0.45225E-03   -0.58609E-04  4297   0.964E-03    0.196E-01
RMM:  22    -0.230788405058E+04   -0.97668E-03   -0.18852E-03  4654   0.169E-02    0.177E-01
RMM:  23    -0.230788411702E+04   -0.66440E-04   -0.19602E-04  3202   0.822E-03    0.167E-01
RMM:  24    -0.230788509100E+04   -0.97398E-03   -0.14185E-03  4523   0.139E-02    0.316E-01
RMM:  25    -0.230788306144E+04    0.20296E-02   -0.96620E-03  4998   0.364E-02    0.215E-01
RMM:  26    -0.230788088615E+04    0.21753E-02   -0.40951E-03  4742   0.271E-02    0.386E-01
RMM:  27    -0.230788060121E+04    0.28494E-03   -0.57808E-04  3897   0.102E-02    0.408E-01
RMM:  28    -0.230788085523E+04   -0.25402E-03   -0.35458E-05  2987   0.401E-03    0.389E-01
RMM:  29    -0.230788042879E+04    0.42644E-03   -0.82197E-05  3079   0.393E-03    0.421E-01
RMM:  30    -0.230787914535E+04    0.12834E-02   -0.54470E-04  4143   0.902E-03    0.508E-01
RMM:  31    -0.230787937873E+04   -0.23338E-03   -0.28274E-05  2944   0.446E-03    0.495E-01
RMM:  32    -0.230787988216E+04   -0.50343E-03   -0.57911E-05  2828   0.331E-03    0.462E-01
RMM:  33    -0.230788065463E+04   -0.77247E-03   -0.16077E-04  3333   0.514E-03    0.412E-01
RMM:  34    -0.230788265841E+04   -0.20038E-02   -0.23175E-03  4655   0.180E-02    0.265E-01
RMM:  35    -0.230788382140E+04   -0.11630E-02   -0.29918E-03  4752   0.221E-02    0.197E-01
RMM:  36    -0.230788431681E+04   -0.49541E-03   -0.13900E-03  4354   0.148E-02    0.204E-01
RMM:  37    -0.230788470116E+04   -0.38435E-03   -0.63857E-04  3987   0.102E-02    0.239E-01
RMM:  38    -0.230788559776E+04   -0.89659E-03   -0.88657E-04  4417   0.121E-02    0.378E-01
RMM:  39    -0.230788837929E+04   -0.27815E-02   -0.20161E-03  4731   0.179E-02    0.802E-01
RMM:  40    -0.230789212894E+04   -0.37496E-02   -0.16567E-03  4427   0.167E-02    0.119E+00
RMM:  41    -0.230789418180E+04   -0.20529E-02   -0.65514E-04  3946   0.110E-02    0.129E+00
RMM:  42    -0.230789410914E+04    0.72658E-04   -0.71074E-05  3014   0.488E-03    0.123E+00
RMM:  43    -0.230789420605E+04   -0.96912E-04   -0.84547E-06  2858   0.228E-03    0.126E+00
RMM:  44    -0.230789379086E+04    0.41519E-03   -0.13719E-05  2693   0.213E-03    0.120E+00
RMM:  45    -0.230789250197E+04    0.12889E-02   -0.10947E-04  3059   0.390E-03    0.107E+00
RMM:  46    -0.230789156114E+04    0.94083E-03   -0.78323E-05  2971   0.351E-03    0.100E+00
RMM:  47    -0.230789181899E+04   -0.25785E-03   -0.75995E-06  2510   0.224E-03    0.107E+00
RMM:  48    -0.230789187381E+04   -0.54822E-04   -0.12378E-06  1952   0.972E-04    0.105E+00
RMM:  49    -0.230789244976E+04   -0.57595E-03   -0.18119E-05  2538   0.173E-03    0.113E+00
RMM:  50    -0.230789250158E+04   -0.51812E-04   -0.24220E-06  2006   0.127E-03    0.111E+00
RMM:  51    -0.230789274814E+04   -0.24656E-03   -0.49551E-06  2211   0.106E-03    0.114E+00
RMM:  52    -0.230789240309E+04    0.34505E-03   -0.84618E-06  2056   0.133E-03    0.108E+00
RMM:  53    -0.230789245557E+04   -0.52485E-04   -0.74004E-07  1691   0.884E-04    0.111E+00
RMM:  54    -0.230789243243E+04    0.23137E-04   -0.13120E-07  1080   0.494E-04    0.110E+00
RMM:  55    -0.230789169010E+04    0.74234E-03   -0.21581E-05  2512   0.185E-03    0.101E+00
RMM:  56    -0.230788980791E+04    0.18822E-02   -0.21271E-04  3465   0.544E-03    0.782E-01
RMM:  57    -0.230788852737E+04    0.12805E-02   -0.15506E-04  3144   0.527E-03    0.687E-01
RMM:  58    -0.230788738104E+04    0.11463E-02   -0.20056E-04  3497   0.553E-03    0.540E-01
RMM:  59    -0.230788639987E+04    0.98117E-03   -0.20754E-04  3345   0.627E-03    0.425E-01
RMM:  60    -0.230788562252E+04    0.77734E-03   -0.29061E-04  3573   0.732E-03    0.324E-01
RMM:  61    -0.230788524452E+04    0.37801E-03   -0.13570E-04  3173   0.590E-03    0.290E-01
RMM:  62    -0.230788518666E+04    0.57857E-04   -0.27516E-05  2918   0.374E-03    0.292E-01
RMM:  63    -0.230788519345E+04   -0.67858E-05   -0.34726E-06  2589   0.192E-03
   9 F= -.23283147E+04 E0= -.23283022E+04  d E =-.248505E-01  mag=     5.5931
       N       E                     dE             d eps       ncg     rms          rms(c)
DAV:   1    -0.230793028050E+04   -0.45094E-01   -0.41812E+00  4480   0.650E-01    0.538E-01
RMM:   2    -0.230793069013E+04   -0.40963E-03   -0.18454E-02  4362   0.452E-02    0.731E-01
RMM:   3    -0.230792974535E+04    0.94478E-03   -0.33964E-03  4938   0.237E-02    0.706E-01
RMM:   4    -0.230792958233E+04    0.16302E-03   -0.37772E-04  3103   0.606E-03    0.615E-01
RMM:   5    -0.230792842305E+04    0.11593E-02   -0.18558E-03  3999   0.174E-02    0.477E-01
RMM:   6    -0.230792759238E+04    0.83067E-03   -0.10689E-03  4401   0.130E-02    0.378E-01
RMM:   7    -0.230792724445E+04    0.34792E-03   -0.31066E-04  3568   0.848E-03    0.287E-01
RMM:   8    -0.230792700274E+04    0.24171E-03   -0.12610E-04  3155   0.549E-03    0.239E-01
RMM:   9    -0.230792679659E+04    0.20615E-03   -0.15446E-04  3298   0.580E-03    0.212E-01
RMM:  10    -0.230792659372E+04    0.20287E-03   -0.12283E-04  3216   0.538E-03    0.194E-01
RMM:  11    -0.230792642759E+04    0.16613E-03   -0.74945E-05  3029   0.499E-03    0.178E-01
RMM:  12    -0.230792622894E+04    0.19865E-03   -0.14440E-04  3404   0.577E-03    0.164E-01
RMM:  13    -0.230792583726E+04    0.39168E-03   -0.63076E-04  4271   0.103E-02    0.154E-01
RMM:  14    -0.230792577287E+04    0.64399E-04   -0.71655E-05  3038   0.552E-03    0.163E-01
RMM:  15    -0.230792580367E+04   -0.30806E-04   -0.64344E-06  2773   0.208E-03    0.164E-01
RMM:  16    -0.230792601313E+04   -0.20946E-03   -0.14617E-04  3185   0.467E-03    0.168E-01
RMM:  17    -0.230792855526E+04   -0.25421E-02   -0.70753E-03  4811   0.313E-02    0.533E-01
RMM:  18    -0.230792730251E+04    0.12527E-02   -0.74009E-04  4080   0.162E-02    0.206E-01
RMM:  19    -0.230792839935E+04   -0.10968E-02   -0.75414E-04  4105   0.106E-02    0.494E-01
RMM:  20    -0.230792772772E+04    0.67163E-03   -0.16638E-04  3338   0.675E-03    0.299E-01
RMM:  21    -0.230792707680E+04    0.65093E-03   -0.54095E-04  4209   0.950E-03    0.233E-01
RMM:  22    -0.230792691893E+04    0.15787E-03   -0.90827E-05  3063   0.611E-03    0.230E-01
RMM:  23    -0.230792678786E+04    0.13106E-03   -0.69450E-05  3078   0.394E-03    0.208E-01
RMM:  24    -0.230792646993E+04    0.31793E-03   -0.33070E-04  3822   0.776E-03    0.164E-01
RMM:  25    -0.230792634219E+04    0.12774E-03   -0.10894E-04  3112   0.571E-03    0.163E-01
RMM:  26    -0.230792621681E+04    0.12538E-03   -0.11016E-04  3238   0.497E-03    0.156E-01
RMM:  27    -0.230792586879E+04    0.34802E-03   -0.62941E-04  4274   0.103E-02    0.152E-01
RMM:  28    -0.230792575908E+04    0.10971E-03   -0.12201E-04  3143   0.620E-03    0.163E-01
RMM:  29    -0.230792530373E+04    0.45535E-03   -0.76966E-04  4331   0.108E-02    0.196E-01
RMM:  30    -0.230792533409E+04   -0.30360E-04   -0.40277E-05  2976   0.572E-03    0.198E-01
RMM:  31    -0.230792521230E+04    0.12179E-03   -0.46291E-05  2955   0.275E-03    0.208E-01
RMM:  32    -0.230792520875E+04    0.35566E-05   -0.38739E-06  2673   0.183E-03
  10 F= -.23283551E+04 E0= -.23283491E+04  d E =-.121079E-01  mag=     5.8434
       N       E                     dE             d eps       ncg     rms          rms(c)
DAV:   1    -0.230792660957E+04   -0.13973E-02   -0.81368E+00  4480   0.913E-01    0.550E-01
RMM:   2    -0.230792490333E+04    0.17062E-02   -0.24057E-02  3991   0.493E-02    0.363E-01
RMM:   3    -0.230792292146E+04    0.19819E-02   -0.71720E-03  4841   0.343E-02    0.337E-01
RMM:   4    -0.230792240317E+04    0.51829E-03   -0.16226E-03  4394   0.166E-02    0.379E-01
RMM:   5    -0.230792258053E+04   -0.17736E-03   -0.19660E-04  3063   0.637E-03    0.363E-01
RMM:   6    -0.230792315428E+04   -0.57375E-03   -0.42674E-03  4468   0.248E-02    0.199E-01
RMM:   7    -0.230792269879E+04    0.45549E-03   -0.22933E-03  4373   0.203E-02    0.257E-01
RMM:   8    -0.230792204970E+04    0.64909E-03   -0.12026E-03  4345   0.129E-02    0.308E-01
RMM:   9    -0.230792312652E+04   -0.10768E-02   -0.16427E-03  4449   0.158E-02    0.225E-01
RMM:  10    -0.230792340202E+04   -0.27550E-03   -0.16565E-03  4511   0.164E-02    0.156E-01
RMM:  11    -0.230792362416E+04   -0.22213E-03   -0.15969E-03  4546   0.156E-02    0.168E-01
RMM:  12    -0.230792391473E+04   -0.29057E-03   -0.98583E-04  4187   0.140E-02    0.236E-01
RMM:  13    -0.230792364695E+04    0.26777E-03   -0.11549E-03  4285   0.136E-02    0.123E-01
RMM:  14    -0.230792304204E+04    0.60492E-03   -0.36223E-03  4741   0.232E-02    0.187E-01
RMM:  15    -0.230792217584E+04    0.86619E-03   -0.22403E-03  4508   0.194E-02    0.280E-01
RMM:  16    -0.230792205878E+04    0.11706E-03   -0.27758E-04  3443   0.825E-03    0.294E-01
RMM:  17    -0.230792211325E+04   -0.54468E-04   -0.17745E-05  2929   0.311E-03    0.293E-01
RMM:  18    -0.230792249421E+04   -0.38096E-03   -0.13950E-04  3191   0.483E-03    0.270E-01
RMM:  19    -0.230792335497E+04   -0.86076E-03   -0.13030E-03  4357   0.140E-02    0.241E-01
RMM:  20    -0.230792347708E+04   -0.12211E-03   -0.24755E-04  3359   0.796E-03    0.221E-01
RMM:  21    -0.230792398767E+04   -0.51059E-03   -0.11482E-03  4384   0.128E-02    0.238E-01
RMM:  22    -0.230792406475E+04   -0.77086E-04   -0.16996E-04  3195   0.732E-03    0.230E-01
RMM:  23    -0.230792397526E+04    0.89488E-04   -0.26246E-05  2904   0.295E-03    0.221E-01
RMM:  24    -0.230792399597E+04   -0.20703E-04   -0.34538E-06  2506   0.143E-03    0.225E-01
RMM:  25    -0.230792392207E+04    0.73902E-04   -0.27047E-05  2683   0.223E-03    0.221E-01
RMM:  26    -0.230792342341E+04    0.49866E-03   -0.12186E-03  4307   0.129E-02    0.226E-01
RMM:  27    -0.230792204039E+04    0.13830E-02   -0.49507E-03  4887   0.274E-02    0.361E-01
RMM:  28    -0.230792436439E+04   -0.23240E-02   -0.11412E-02  4973   0.402E-02    0.281E-01
RMM:  29    -0.230792413670E+04    0.22769E-03   -0.57368E-04  3783   0.174E-02    0.229E-01
RMM:  30    -0.230792509766E+04   -0.96096E-03   -0.24175E-03  4705   0.176E-02    0.361E-01
RMM:  31    -0.230792552684E+04   -0.42918E-03   -0.54903E-04  3874   0.110E-02    0.402E-01
RMM:  32    -0.230792526420E+04    0.26264E-03   -0.48495E-05  2987   0.393E-03    0.333E-01
RMM:  33    -0.230792553617E+04   -0.27196E-03   -0.82477E-05  2955   0.377E-03    0.397E-01
RMM:  34    -0.230792499738E+04    0.53878E-03   -0.24465E-04  3370   0.660E-03    0.280E-01
RMM:  35    -0.230792434967E+04    0.64772E-03   -0.81384E-04  4321   0.111E-02    0.201E-01
RMM:  36    -0.230792399852E+04    0.35114E-03   -0.41379E-04  3674   0.899E-03    0.176E-01
RMM:  37    -0.230792366218E+04    0.33635E-03   -0.64126E-04  4228   0.102E-02    0.166E-01
RMM:  38    -0.230792355728E+04    0.10489E-03   -0.13427E-04  3146   0.657E-03    0.173E-01
RMM:  39    -0.230792362015E+04   -0.62868E-04   -0.14662E-05  2819   0.270E-03    0.174E-01
RMM:  40    -0.230792356613E+04    0.54019E-04   -0.10574E-05  2627   0.190E-03    0.173E-01
RMM:  41    -0.230792328275E+04    0.28338E-03   -0.33264E-04  3850   0.697E-03    0.188E-01
RMM:  42    -0.230792304710E+04    0.23565E-03   -0.23888E-04  3372   0.672E-03    0.210E-01
RMM:  43    -0.230792293358E+04    0.11351E-03   -0.84134E-05  3113   0.469E-03    0.221E-01
RMM:  44    -0.230792307610E+04   -0.14252E-03   -0.41053E-05  2818   0.348E-03    0.210E-01
RMM:  45    -0.230792311576E+04   -0.39657E-04   -0.97362E-06  2497   0.186E-03    0.206E-01
RMM:  46    -0.230792313089E+04   -0.15132E-04   -0.23212E-06  2177   0.117E-03    0.205E-01
RMM:  47    -0.230792324449E+04   -0.11360E-03   -0.42805E-05  2973   0.271E-03    0.197E-01
RMM:  48    -0.230792334734E+04   -0.10286E-03   -0.41883E-05  2867   0.265E-03    0.191E-01
RMM:  49    -0.230792375088E+04   -0.40354E-03   -0.63182E-04  4196   0.955E-03    0.184E-01
RMM:  50    -0.230792414109E+04   -0.39021E-03   -0.76182E-04  4166   0.114E-02    0.200E-01
RMM:  51    -0.230792466934E+04   -0.52825E-03   -0.96203E-04  4402   0.125E-02    0.258E-01
RMM:  52    -0.230792516316E+04   -0.49382E-03   -0.56034E-04  3951   0.105E-02    0.323E-01
RMM:  53    -0.230792547271E+04   -0.30955E-03   -0.21143E-04  3416   0.683E-03    0.358E-01
RMM:  54    -0.230792535534E+04    0.11737E-03   -0.16243E-05  2924   0.389E-03    0.324E-01
RMM:  55    -0.230792512209E+04    0.23325E-03   -0.50274E-05  2797   0.294E-03    0.290E-01
RMM:  56    -0.230792463226E+04    0.48984E-03   -0.36193E-04  3743   0.718E-03    0.210E-01
RMM:  57    -0.230792398057E+04    0.65169E-03   -0.13353E-03  4418   0.138E-02    0.144E-01
RMM:  58    -0.230792413956E+04   -0.15899E-03   -0.12189E-04  3064   0.697E-03    0.178E-01
RMM:  59    -0.230792414742E+04   -0.78661E-05   -0.12604E-05  2551   0.246E-03
  11 F= -.23283540E+04 E0= -.23283444E+04  d E =-.191175E-01  mag=     5.7081
       N       E                     dE             d eps       ncg     rms          rms(c)
DAV:   1    -0.230780623589E+04    0.11790E+00   -0.44703E+00  4480   0.704E-01    0.632E-01
RMM:   2    -0.230779803752E+04    0.81984E-02   -0.38634E-02  3992   0.566E-02    0.324E-01
RMM:   3    -0.230779738088E+04    0.65664E-03   -0.76620E-03  4889   0.367E-02    0.438E-01
RMM:   4    -0.230779565371E+04    0.17272E-02   -0.33714E-03  5029   0.208E-02    0.138E-01
RMM:   5    -0.230779546819E+04    0.18552E-03   -0.47223E-04  3738   0.929E-03    0.655E-02
RMM:   6    -0.230779547816E+04   -0.99662E-05   -0.97263E-05  3110   0.556E-03
  12 F= -.23282251E+04 E0= -.23282159E+04  d E =-.184072E-01  mag=     5.7002
       N       E                     dE             d eps       ncg     rms          rms(c)
DAV:   1    -0.230801794574E+04   -0.22248E+00   -0.94962E+00  4480   0.108E+00    0.137E+00
RMM:   2    -0.230799405537E+04    0.23890E-01   -0.10562E-01  4475   0.970E-02    0.214E+00
RMM:   3    -0.230799071577E+04    0.33396E-02   -0.96915E-03  4166   0.594E-02    0.219E+00
RMM:   4    -0.230798937800E+04    0.13378E-02   -0.10101E-02  4808   0.336E-02    0.129E+00
RMM:   5    -0.230797873967E+04    0.10638E-01   -0.26344E-02  5089   0.594E-02    0.740E-01
RMM:   6    -0.230797321564E+04    0.55240E-02   -0.82738E-03  4866   0.387E-02    0.417E-01
RMM:   7    -0.230797101076E+04    0.22049E-02   -0.58126E-03  4611   0.278E-02    0.351E-01
RMM:   8    -0.230796858811E+04    0.24227E-02   -0.22659E-03  4444   0.207E-02    0.416E-01
RMM:   9    -0.230796655916E+04    0.20289E-02   -0.11562E-03  4474   0.143E-02    0.514E-01
RMM:  10    -0.230797090554E+04   -0.43464E-02   -0.27601E-03  4437   0.210E-02    0.323E-01
RMM:  11    -0.230797373328E+04   -0.28277E-02   -0.42549E-03  4603   0.263E-02    0.328E-01
RMM:  12    -0.230797778645E+04   -0.40532E-02   -0.75843E-03  5018   0.331E-02    0.730E-01
RMM:  13    -0.230797800451E+04   -0.21806E-03   -0.89258E-04  4136   0.166E-02    0.655E-01
RMM:  14    -0.230797932562E+04   -0.13211E-02   -0.41384E-04  3895   0.739E-03    0.859E-01
RMM:  15    -0.230797740775E+04    0.19179E-02   -0.43774E-04  3861   0.947E-03    0.490E-01
RMM:  16    -0.230797485100E+04    0.25567E-02   -0.26227E-03  4541   0.196E-02    0.240E-01
RMM:  17    -0.230797293126E+04    0.19197E-02   -0.34199E-03  4698   0.238E-02    0.203E-01
RMM:  18    -0.230797226738E+04    0.66389E-03   -0.11247E-03  4200   0.147E-02    0.239E-01
RMM:  19    -0.230797053241E+04    0.17350E-02   -0.26949E-03  4782   0.199E-02    0.346E-01
RMM:  20    -0.230797206579E+04   -0.15334E-02   -0.11156E-03  4508   0.150E-02    0.261E-01
RMM:  21    -0.230797464002E+04   -0.25742E-02   -0.57837E-03  4794   0.286E-02    0.319E-01
RMM:  22    -0.230797920267E+04   -0.45627E-02   -0.69691E-03  4873   0.331E-02    0.852E-01
RMM:  23    -0.230798058477E+04   -0.13821E-02   -0.13742E-03  4325   0.181E-02    0.880E-01
RMM:  24    -0.230798092096E+04   -0.33620E-03   -0.24282E-04  3384   0.569E-03    0.896E-01
RMM:  25    -0.230798104958E+04   -0.12861E-03   -0.12787E-05  2955   0.362E-03    0.907E-01
RMM:  26    -0.230798044602E+04    0.60355E-03   -0.24589E-05  2865   0.249E-03    0.826E-01
RMM:  27    -0.230797989933E+04    0.54670E-03   -0.23711E-05  2785   0.243E-03    0.774E-01
RMM:  28    -0.230797553008E+04    0.43692E-02   -0.58914E-03  4764   0.290E-02    0.162E-01
RMM:  29    -0.230797358448E+04    0.19456E-02   -0.21556E-03  4355   0.225E-02    0.193E-01
RMM:  30    -0.230797259827E+04    0.98620E-03   -0.18767E-03  4833   0.166E-02    0.218E-01
RMM:  31    -0.230797092828E+04    0.16700E-02   -0.23156E-03  4549   0.198E-02    0.329E-01
RMM:  32    -0.230796969915E+04    0.12291E-02   -0.10176E-03  4217   0.141E-02    0.420E-01
RMM:  33    -0.230796978536E+04   -0.86212E-04   -0.66273E-05  3060   0.503E-03    0.414E-01
RMM:  34    -0.230797043981E+04   -0.65445E-03   -0.11637E-04  3038   0.490E-03    0.366E-01
RMM:  35    -0.230797118817E+04   -0.74835E-03   -0.23218E-04  3514   0.646E-03    0.313E-01
RMM:  36    -0.230797218223E+04   -0.99407E-03   -0.51682E-04  3876   0.931E-03    0.259E-01
RMM:  37    -0.230797377341E+04   -0.15912E-02   -0.21875E-03  4614   0.184E-02    0.266E-01
RMM:  38    -0.230797451942E+04   -0.74601E-03   -0.85369E-04  4062   0.132E-02    0.306E-01
RMM:  39    -0.230797423567E+04    0.28375E-03   -0.82651E-05  3015   0.549E-03    0.267E-01
RMM:  40    -0.230797420017E+04    0.35500E-04   -0.89930E-06  2681   0.219E-03    0.274E-01
RMM:  41    -0.230797405851E+04    0.14165E-03   -0.18141E-05  2712   0.205E-03    0.262E-01
RMM:  42    -0.230797382700E+04    0.23151E-03   -0.54099E-05  2979   0.312E-03    0.250E-01
RMM:  43    -0.230797288000E+04    0.94700E-03   -0.10667E-03  4371   0.123E-02    0.242E-01
RMM:  44    -0.230797175783E+04    0.11222E-02   -0.14515E-03  4439   0.154E-02    0.312E-01
RMM:  45    -0.230797093184E+04    0.82599E-03   -0.72743E-04  4091   0.113E-02    0.375E-01
RMM:  46    -0.230797048431E+04    0.44753E-03   -0.24394E-04  3416   0.730E-03    0.409E-01
RMM:  47    -0.230797065500E+04   -0.17069E-03   -0.15772E-05  2871   0.361E-03    0.398E-01
RMM:  48    -0.230797076472E+04   -0.10972E-03   -0.74195E-06  2564   0.163E-03    0.390E-01
RMM:  49    -0.230797081078E+04   -0.46059E-04   -0.17788E-06  2393   0.120E-03    0.387E-01
RMM:  50    -0.230797080512E+04    0.56520E-05   -0.18155E-07  1608   0.631E-04
  13 F= -.23284008E+04 E0= -.23283967E+04  d E =-.824157E-02  mag=     6.0178
       N       E                     dE             d eps       ncg     rms          rms(c)
DAV:   1    -0.230792940460E+04    0.41406E-01   -0.30310E+00  4560   0.535E-01    0.764E-01
RMM:   2    -0.230792092101E+04    0.84836E-02   -0.35345E-02  4275   0.568E-02    0.413E-01
RMM:   3    -0.230791748223E+04    0.34388E-02   -0.79377E-03  4502   0.413E-02    0.480E-01
RMM:   4    -0.230791590421E+04    0.15780E-02   -0.31842E-03  4913   0.230E-02    0.321E-01
RMM:   5    -0.230791505388E+04    0.85033E-03   -0.24431E-03  4473   0.183E-02    0.400E-01
RMM:   6    -0.230791735763E+04   -0.23038E-02   -0.40839E-03  4581   0.251E-02    0.236E-01
RMM:   7    -0.230791820461E+04   -0.84698E-03   -0.60536E-03  4669   0.318E-02    0.364E-01
RMM:   8    -0.230791694464E+04    0.12600E-02   -0.39819E-03  4809   0.234E-02    0.518E-01
RMM:   9    -0.230791932670E+04   -0.23821E-02   -0.52357E-03  4793   0.289E-02    0.317E-01
RMM:  10    -0.230791932790E+04   -0.12020E-05   -0.88757E-04  4137   0.166E-02    0.233E-01
RMM:  11    -0.230791969969E+04   -0.37178E-03   -0.20674E-03  4609   0.170E-02    0.190E-01
RMM:  12    -0.230792018903E+04   -0.48934E-03   -0.16352E-03  4318   0.182E-02    0.216E-01
RMM:  13    -0.230792017945E+04    0.95722E-05   -0.15868E-04  3185   0.666E-03    0.196E-01
RMM:  14    -0.230792018436E+04   -0.49032E-05   -0.95892E-06  2928   0.291E-03
  14 F= -.23283501E+04 E0= -.23283406E+04  d E =-.190146E-01  mag=     5.7857
       N       E                     dE             d eps       ncg     rms          rms(c)
DAV:   1    -0.230791443192E+04    0.57475E-02   -0.12206E+00  4880   0.308E-01    0.511E-01
RMM:   2    -0.230791312302E+04    0.13089E-02   -0.15005E-02  4134   0.331E-02    0.521E-01
RMM:   3    -0.230791191039E+04    0.12126E-02   -0.43503E-03  4792   0.239E-02    0.368E-01
RMM:   4    -0.230791133180E+04    0.57859E-03   -0.25513E-03  4440   0.186E-02    0.385E-01
RMM:   5    -0.230791108220E+04    0.24960E-03   -0.96777E-04  4286   0.122E-02    0.481E-01
RMM:   6    -0.230791143080E+04   -0.34860E-03   -0.13844E-03  4009   0.154E-02    0.139E-01
RMM:   7    -0.230791171600E+04   -0.28521E-03   -0.11044E-03  4035   0.150E-02    0.170E-01
RMM:   8    -0.230791182281E+04   -0.10680E-03   -0.52614E-04  3966   0.977E-03    0.108E-01
RMM:   9    -0.230791179340E+04    0.29411E-04   -0.14034E-04  3351   0.668E-03    0.107E-01
RMM:  10    -0.230791180199E+04   -0.85938E-05   -0.13097E-05  2886   0.342E-03
  15 F= -.23283415E+04 E0= -.23283330E+04  d E =-.171336E-01  mag=     5.7545
       N       E                     dE             d eps       ncg     rms          rms(c)
DAV:   1    -0.230792562956E+04   -0.13836E-01   -0.59302E-01  4320   0.200E-01    0.364E-01
RMM:   2    -0.230792544701E+04    0.18256E-03   -0.56809E-03  3998   0.239E-02    0.290E-01
RMM:   3    -0.230792562141E+04   -0.17441E-03   -0.12157E-03  4239   0.143E-02    0.427E-01
RMM:   4    -0.230792548390E+04    0.13751E-03   -0.14762E-04  3073   0.587E-03    0.415E-01
RMM:   5    -0.230792531681E+04    0.16709E-03   -0.31540E-04  3365   0.737E-03    0.327E-01
RMM:   6    -0.230792484238E+04    0.47444E-03   -0.17992E-03  4278   0.157E-02    0.226E-01
RMM:   7    -0.230792392767E+04    0.91471E-03   -0.18432E-03  4377   0.176E-02    0.196E-01
RMM:   8    -0.230792321127E+04    0.71639E-03   -0.10398E-03  4329   0.140E-02    0.251E-01
RMM:   9    -0.230792467363E+04   -0.14624E-02   -0.34311E-03  4639   0.223E-02    0.173E-01
RMM:  10    -0.230792496167E+04   -0.28804E-03   -0.20262E-03  4416   0.188E-02    0.145E-01
RMM:  11    -0.230792530512E+04   -0.34345E-03   -0.11557E-03  4521   0.133E-02    0.212E-01
RMM:  12    -0.230792499641E+04    0.30871E-03   -0.61539E-04  4111   0.107E-02    0.111E-01
RMM:  13    -0.230792459180E+04    0.40461E-03   -0.14857E-03  4536   0.148E-02    0.131E-01
RMM:  14    -0.230792413889E+04    0.45291E-03   -0.11857E-03  4245   0.142E-02    0.168E-01
RMM:  15    -0.230792377268E+04    0.36621E-03   -0.59203E-04  4071   0.108E-02    0.206E-01
RMM:  16    -0.230792409208E+04   -0.31940E-03   -0.16593E-04  3314   0.648E-03    0.179E-01
RMM:  17    -0.230792444320E+04   -0.35112E-03   -0.53012E-04  4150   0.926E-03    0.146E-01
RMM:  18    -0.230792492896E+04   -0.48577E-03   -0.13574E-03  4474   0.144E-02    0.145E-01
RMM:  19    -0.230792519104E+04   -0.26207E-03   -0.58609E-04  3917   0.107E-02    0.163E-01
RMM:  20    -0.230792531038E+04   -0.11934E-03   -0.17440E-04  3274   0.599E-03    0.172E-01
RMM:  21    -0.230792537123E+04   -0.60855E-04   -0.29434E-05  2948   0.373E-03    0.179E-01
RMM:  22    -0.230792531334E+04    0.57889E-04   -0.74328E-06  2705   0.222E-03    0.165E-01
RMM:  23    -0.230792481335E+04    0.49999E-03   -0.10901E-03  4273   0.124E-02    0.100E-01
RMM:  24    -0.230792443629E+04    0.37707E-03   -0.81836E-04  3989   0.123E-02    0.116E-01
RMM:  25    -0.230792420984E+04    0.22645E-03   -0.41300E-04  3851   0.830E-03    0.131E-01
RMM:  26    -0.230792411376E+04    0.96080E-04   -0.93196E-05  3106   0.504E-03    0.140E-01
RMM:  27    -0.230792388575E+04    0.22800E-03   -0.18093E-04  3576   0.582E-03    0.161E-01
RMM:  28    -0.230792404637E+04   -0.16061E-03   -0.56080E-05  2963   0.459E-03    0.147E-01
RMM:  29    -0.230792421826E+04   -0.17189E-03   -0.11963E-04  3256   0.456E-03    0.130E-01
RMM:  30    -0.230792462014E+04   -0.40188E-03   -0.74633E-04  4300   0.103E-02    0.108E-01
RMM:  31    -0.230792543041E+04   -0.81027E-03   -0.25844E-03  4716   0.196E-02    0.186E-01
RMM:  32    -0.230792607040E+04   -0.64000E-03   -0.12706E-03  4251   0.152E-02    0.279E-01
RMM:  33    -0.230792565382E+04    0.41659E-03   -0.16296E-04  3217   0.659E-03    0.167E-01
RMM:  34    -0.230792591874E+04   -0.26493E-03   -0.82534E-05  2989   0.403E-03    0.258E-01
RMM:  35    -0.230792636976E+04   -0.45101E-03   -0.23349E-04  3578   0.626E-03    0.327E-01
RMM:  36    -0.230792629850E+04    0.71257E-04   -0.16689E-05  2736   0.357E-03    0.293E-01
RMM:  37    -0.230792655589E+04   -0.25739E-03   -0.47805E-05  2948   0.278E-03    0.353E-01
RMM:  38    -0.230792645171E+04    0.10418E-03   -0.69847E-06  2528   0.225E-03    0.317E-01
RMM:  39    -0.230792647616E+04   -0.24454E-04   -0.68971E-07  2031   0.910E-04    0.333E-01
RMM:  40    -0.230792655790E+04   -0.81740E-04   -0.47215E-06  2173   0.104E-03    0.346E-01
RMM:  41    -0.230792653074E+04    0.27168E-04   -0.53653E-07  1872   0.826E-04    0.338E-01
RMM:  42    -0.230792652868E+04    0.20549E-05   -0.26528E-07  1248   0.559E-04
  16 F= -.23283564E+04 E0= -.23283440E+04  d E =-.247621E-01  mag=     5.5448
       N       E                     dE             d eps       ncg     rms          rms(c)
DAV:   1    -0.230792764849E+04   -0.11178E-02   -0.11330E+00  4480   0.298E-01    0.541E-01
RMM:   2    -0.230793293727E+04   -0.52888E-02   -0.56263E-03  4209   0.300E-02    0.129E+00
RMM:   3    -0.230792984553E+04    0.30917E-02   -0.29943E-03  4458   0.242E-02    0.470E-01
RMM:   4    -0.230792793583E+04    0.19097E-02   -0.35518E-03  4914   0.198E-02    0.520E-01
RMM:   5    -0.230792650759E+04    0.14282E-02   -0.13007E-03  4122   0.146E-02    0.236E-01
RMM:   6    -0.230792615485E+04    0.35273E-03   -0.43101E-04  3495   0.904E-03    0.215E-01
RMM:   7    -0.230792585697E+04    0.29788E-03   -0.20602E-04  3385   0.611E-03    0.186E-01
RMM:   8    -0.230792564833E+04    0.20864E-03   -0.81769E-05  3086   0.517E-03    0.171E-01
RMM:   9    -0.230792543527E+04    0.21306E-03   -0.12886E-04  3354   0.552E-03    0.161E-01
RMM:  10    -0.230792494313E+04    0.49214E-03   -0.65277E-04  4271   0.105E-02    0.146E-01
RMM:  11    -0.230792424751E+04    0.69562E-03   -0.14601E-03  4581   0.157E-02    0.188E-01
RMM:  12    -0.230792472088E+04   -0.47336E-03   -0.33916E-04  3781   0.920E-03    0.176E-01
RMM:  13    -0.230792541737E+04   -0.69649E-03   -0.15348E-03  4511   0.152E-02    0.172E-01
RMM:  14    -0.230792693074E+04   -0.15134E-02   -0.33481E-03  4804   0.222E-02    0.357E-01
RMM:  15    -0.230792532965E+04    0.16011E-02   -0.52254E-03  4886   0.283E-02    0.120E-01
RMM:  16    -0.230792516720E+04    0.16245E-03   -0.27799E-04  3429   0.128E-02    0.164E-01
RMM:  17    -0.230792490418E+04    0.26302E-03   -0.57411E-04  4212   0.944E-03    0.172E-01
RMM:  18    -0.230792383083E+04    0.10733E-02   -0.28313E-03  4814   0.210E-02    0.273E-01
RMM:  19    -0.230792285112E+04    0.97972E-03   -0.14920E-03  4446   0.165E-02    0.372E-01
RMM:  20    -0.230792328488E+04   -0.43376E-03   -0.12559E-04  3108   0.636E-03    0.334E-01
RMM:  21    -0.230792321961E+04    0.65268E-04   -0.10946E-05  2795   0.231E-03    0.340E-01
RMM:  22    -0.230792322257E+04   -0.29646E-05   -0.14454E-06  2410   0.125E-03
  17 F= -.23283530E+04 E0= -.23283482E+04  d E =-.962732E-02  mag=     5.9332
       N       E                     dE             d eps       ncg     rms          rms(c)
DAV:   1    -0.230791070760E+04    0.12512E-01   -0.59031E-01  4640   0.215E-01    0.424E-01
RMM:   2    -0.230791101685E+04   -0.30925E-03   -0.77076E-03  4374   0.273E-02    0.484E-01
RMM:   3    -0.230791019471E+04    0.82214E-03   -0.21855E-03  4412   0.191E-02    0.329E-01
RMM:   4    -0.230790956680E+04    0.62791E-03   -0.22332E-03  4395   0.178E-02    0.359E-01
RMM:   5    -0.230790799121E+04    0.15756E-02   -0.35334E-03  4660   0.229E-02    0.330E-01
RMM:   6    -0.230790823532E+04   -0.24411E-03   -0.31835E-04  3581   0.116E-02    0.235E-01
RMM:   7    -0.230790984331E+04   -0.16080E-02   -0.24239E-03  4339   0.197E-02    0.233E-01
RMM:   8    -0.230790975839E+04    0.84923E-04   -0.13605E-03  4221   0.147E-02    0.229E-01
RMM:   9    -0.230790924928E+04    0.50911E-03   -0.15207E-03  4608   0.163E-02    0.304E-01
RMM:  10    -0.230790945385E+04   -0.20457E-03   -0.10355E-04  3116   0.668E-03    0.276E-01
RMM:  11    -0.230790969521E+04   -0.24137E-03   -0.32460E-04  3817   0.714E-03    0.216E-01
RMM:  12    -0.230791001095E+04   -0.31574E-03   -0.70515E-04  4216   0.103E-02    0.156E-01
RMM:  13    -0.230791036323E+04   -0.35228E-03   -0.62088E-04  4058   0.106E-02    0.139E-01
RMM:  14    -0.230791067525E+04   -0.31202E-03   -0.40284E-04  3877   0.904E-03    0.136E-01
RMM:  15    -0.230791089311E+04   -0.21786E-03   -0.36149E-04  3721   0.837E-03    0.143E-01
RMM:  16    -0.230791037871E+04    0.51440E-03   -0.13848E-03  4244   0.140E-02    0.127E-01
RMM:  17    -0.230790984397E+04    0.53474E-03   -0.11017E-03  4288   0.138E-02    0.185E-01
RMM:  18    -0.230791109061E+04   -0.12466E-02   -0.38308E-03  4704   0.236E-02    0.171E-01
RMM:  19    -0.230791432089E+04   -0.32303E-02   -0.91100E-03  5030   0.373E-02    0.642E-01
RMM:  20    -0.230791298167E+04    0.13392E-02   -0.50080E-04  3812   0.160E-02    0.278E-01
RMM:  21    -0.230791375654E+04   -0.77487E-03   -0.35394E-04  3565   0.683E-03    0.529E-01
RMM:  22    -0.230791694080E+04   -0.31843E-02   -0.19054E-03  4632   0.161E-02    0.936E-01
RMM:  23    -0.230791531518E+04    0.16256E-02   -0.30710E-04  3518   0.101E-02    0.559E-01
RMM:  24    -0.230791671224E+04   -0.13971E-02   -0.21992E-04  3366   0.634E-03    0.895E-01
RMM:  25    -0.230791635605E+04    0.35619E-03   -0.26682E-05  2838   0.395E-03    0.745E-01
RMM:  26    -0.230791620759E+04    0.14845E-03   -0.60844E-06  2225   0.158E-03    0.774E-01
RMM:  27    -0.230791740800E+04   -0.12004E-02   -0.13877E-04  3207   0.449E-03    0.940E-01
RMM:  28    -0.230791602429E+04    0.13837E-02   -0.20969E-04  3359   0.589E-03    0.693E-01
RMM:  29    -0.230791490061E+04    0.11237E-02   -0.24645E-04  3581   0.633E-03    0.624E-01
RMM:  30    -0.230791375260E+04    0.11480E-02   -0.44894E-04  3789   0.824E-03    0.468E-01
RMM:  31    -0.230791287312E+04    0.87948E-03   -0.40847E-04  3860   0.856E-03    0.364E-01
RMM:  32    -0.230791212121E+04    0.75191E-03   -0.61397E-04  4099   0.101E-02    0.252E-01
RMM:  33    -0.230791164763E+04    0.47358E-03   -0.45224E-04  3846   0.926E-03    0.199E-01
RMM:  34    -0.230791131233E+04    0.33530E-03   -0.43644E-04  3888   0.910E-03    0.163E-01
RMM:  35    -0.230791106000E+04    0.25233E-03   -0.33171E-04  3723   0.837E-03    0.147E-01
RMM:  36    -0.230791082057E+04    0.23943E-03   -0.36571E-04  3807   0.867E-03    0.141E-01
RMM:  37    -0.230791056696E+04    0.25360E-03   -0.38416E-04  3917   0.880E-03    0.147E-01
RMM:  38    -0.230791032240E+04    0.24456E-03   -0.32245E-04  3663   0.830E-03    0.164E-01
RMM:  39    -0.230791016964E+04    0.15276E-03   -0.13449E-04  3193   0.619E-03    0.177E-01
RMM:  40    -0.230791013730E+04    0.32337E-04   -0.21941E-05  2965   0.365E-03    0.180E-01
RMM:  41    -0.230791016101E+04   -0.23708E-04   -0.28288E-06  2652   0.202E-03    0.179E-01
RMM:  42    -0.230791012700E+04    0.34007E-04   -0.35145E-06  2588   0.144E-03    0.181E-01
RMM:  43    -0.230791011799E+04    0.90125E-05   -0.12391E-06  2491   0.133E-03
  18 F= -.23283403E+04 E0= -.23283344E+04  d E =-.119126E-01  mag=     5.8638
       N       E                     dE             d eps       ncg     rms          rms(c)
DAV:   1    -0.230792808860E+04   -0.17962E-01   -0.11944E+00  4880   0.285E-01    0.662E-01
RMM:   2    -0.230792469139E+04    0.33972E-02   -0.29231E-02  4738   0.516E-02    0.456E-01
RMM:   3    -0.230792521013E+04   -0.51874E-03   -0.73739E-03  5155   0.322E-02    0.599E-01
RMM:   4    -0.230792286825E+04    0.23419E-02   -0.25001E-03  4641   0.202E-02    0.376E-01
RMM:   5    -0.230792226615E+04    0.60210E-03   -0.11577E-03  4209   0.131E-02    0.431E-01
RMM:   6    -0.230792278191E+04   -0.51575E-03   -0.90382E-04  4196   0.126E-02    0.328E-01
RMM:   7    -0.230792253726E+04    0.24465E-03   -0.41286E-03  4490   0.250E-02    0.254E-01
RMM:   8    -0.230792140696E+04    0.11303E-02   -0.33102E-03  4765   0.243E-02    0.377E-01
RMM:   9    -0.230792277635E+04   -0.13694E-02   -0.21300E-03  4592   0.188E-02    0.243E-01
RMM:  10    -0.230792325202E+04   -0.47568E-03   -0.22793E-03  4656   0.191E-02    0.136E-01
RMM:  11    -0.230792355362E+04   -0.30159E-03   -0.10631E-03  4275   0.135E-02    0.134E-01
RMM:  12    -0.230792386835E+04   -0.31474E-03   -0.89425E-04  4319   0.130E-02    0.176E-01
RMM:  13    -0.230792369454E+04    0.17381E-03   -0.23337E-04  3508   0.815E-03    0.129E-01
RMM:  14    -0.230792320166E+04    0.49288E-03   -0.28011E-03  4681   0.201E-02    0.181E-01
RMM:  15    -0.230792188886E+04    0.13128E-02   -0.45693E-03  4921   0.272E-02    0.328E-01
RMM:  16    -0.230792203997E+04   -0.15111E-03   -0.22586E-04  3279   0.918E-03    0.316E-01
RMM:  17    -0.230792231262E+04   -0.27265E-03   -0.16317E-04  3266   0.534E-03    0.266E-01
RMM:  18    -0.230792282654E+04   -0.51392E-03   -0.70104E-04  4218   0.995E-03    0.192E-01
RMM:  19    -0.230792372054E+04   -0.89400E-03   -0.31512E-03  4760   0.212E-02    0.956E-02
RMM:  20    -0.230792396793E+04   -0.24739E-03   -0.74566E-04  4013   0.125E-02    0.918E-02
RMM:  21    -0.230792428357E+04   -0.31564E-03   -0.56690E-04  4170   0.902E-03    0.115E-01
RMM:  22    -0.230792464666E+04   -0.36309E-03   -0.43918E-04  3824   0.963E-03    0.154E-01
RMM:  23    -0.230792443676E+04    0.20990E-03   -0.71843E-05  3017   0.476E-03    0.114E-01
RMM:  24    -0.230792437256E+04    0.64203E-04   -0.17263E-05  2694   0.236E-03    0.119E-01
RMM:  25    -0.230792441700E+04   -0.44449E-04   -0.44160E-06  2411   0.140E-03    0.127E-01
RMM:  26    -0.230792438672E+04    0.30284E-04   -0.78148E-06  2509   0.136E-03    0.130E-01
RMM:  27    -0.230792420973E+04    0.17699E-03   -0.11718E-04  3200   0.409E-03    0.126E-01
RMM:  28    -0.230792382696E+04    0.38277E-03   -0.65007E-04  4243   0.941E-03    0.126E-01
RMM:  29    -0.230792359856E+04    0.22840E-03   -0.32090E-04  3477   0.788E-03    0.140E-01
RMM:  30    -0.230792358489E+04    0.13673E-04   -0.42178E-05  2901   0.380E-03    0.143E-01
RMM:  31    -0.230792358262E+04    0.22746E-05   -0.33363E-06  2535   0.176E-03
  19 F= -.23283531E+04 E0= -.23283451E+04  d E =-.160740E-01  mag=     5.7546
       N       E                     dE             d eps       ncg     rms          rms(c)
DAV:   1    -0.230790457603E+04    0.19009E-01   -0.56188E-01  4560   0.213E-01    0.481E-01
RMM:   2    -0.230790464445E+04   -0.68422E-04   -0.18463E-02  4965   0.452E-02    0.398E-01
RMM:   3    -0.230790375010E+04    0.89435E-03   -0.46927E-03  5017   0.270E-02    0.370E-01
RMM:   4    -0.230790255466E+04    0.11954E-02   -0.10628E-03  3986   0.134E-02    0.128E-01
RMM:   5    -0.230790239619E+04    0.15847E-03   -0.66662E-04  4084   0.977E-03    0.681E-02
RMM:   6    -0.230790230666E+04    0.89535E-04   -0.17032E-04  3305   0.695E-03    0.312E-02
RMM:   7    -0.230790238376E+04   -0.77100E-04   -0.39812E-05  2993   0.439E-03    0.210E-02
RMM:   8    -0.230790249919E+04   -0.11543E-03   -0.19755E-05  2947   0.361E-03    0.138E-02
RMM:   9    -0.230790261836E+04   -0.11917E-03   -0.12593E-05  2933   0.305E-03    0.110E-02
RMM:  10    -0.230790271680E+04   -0.98446E-04   -0.14204E-05  2973   0.304E-03    0.641E-03
RMM:  11    -0.230790276774E+04   -0.50940E-04   -0.11354E-05  2893   0.294E-03    0.323E-03
RMM:  12    -0.230790278225E+04   -0.14511E-04   -0.38389E-06  2658   0.240E-03    0.169E-03
RMM:  13    -0.230790278980E+04   -0.75431E-05   -0.22524E-06  2562   0.166E-03
  20 F= -.23283342E+04 E0= -.23283302E+04  d E =-.789477E-02  mag=     5.8889
       N       E                     dE             d eps       ncg     rms          rms(c)
DAV:   1    -0.230794342829E+04   -0.40646E-01   -0.10698E+00  4480   0.279E-01    0.868E-01
RMM:   2    -0.230794609031E+04   -0.26620E-02   -0.41091E-02  4842   0.734E-02    0.126E+00
RMM:   3    -0.230794641853E+04   -0.32822E-03   -0.34435E-03  4067   0.223E-02    0.104E+00
RMM:   4    -0.230794386267E+04    0.25559E-02   -0.27977E-02  4942   0.627E-02    0.767E-01
RMM:   5    -0.230794180682E+04    0.20559E-02   -0.47401E-03  4681   0.261E-02    0.753E-01
RMM:   6    -0.230793896425E+04    0.28426E-02   -0.26278E-03  4564   0.186E-02    0.747E-01
RMM:   7    -0.230793821082E+04    0.75343E-03   -0.44151E-04  3741   0.109E-02    0.771E-01
RMM:   8    -0.230793784297E+04    0.36785E-03   -0.10514E-04  3255   0.461E-03    0.784E-01
RMM:   9    -0.230794400607E+04   -0.61631E-02   -0.10541E-02  4871   0.384E-02    0.731E-01
RMM:  10    -0.230794744216E+04   -0.34361E-02   -0.11550E-02  4965   0.423E-02    0.847E-01
RMM:  11    -0.230794438829E+04    0.30539E-02   -0.37087E-03  4670   0.258E-02    0.596E-01
RMM:  12    -0.230793870613E+04    0.56822E-02   -0.18272E-02  5028   0.504E-02    0.757E-01
RMM:  13    -0.230793062618E+04    0.80799E-02   -0.19378E-02  5064   0.538E-02    0.117E+00
RMM:  14    -0.230793180933E+04   -0.11831E-02   -0.10335E-03  4193   0.211E-02    0.112E+00
RMM:  15    -0.230793039615E+04    0.14132E-02   -0.28966E-04  3786   0.628E-03    0.113E+00
RMM:  16    -0.230793519538E+04   -0.47992E-02   -0.66287E-03  4861   0.300E-02    0.766E-01
RMM:  17    -0.230794249013E+04   -0.72948E-02   -0.22745E-02  5204   0.561E-02    0.337E-01
RMM:  18    -0.230794646394E+04   -0.39738E-02   -0.92431E-03  4879   0.400E-02    0.410E-01
RMM:  19    -0.230794943631E+04   -0.29724E-02   -0.37705E-03  4876   0.256E-02    0.593E-01
RMM:  20    -0.230794933475E+04    0.10156E-03   -0.40512E-04  3635   0.112E-02    0.525E-01
RMM:  21    -0.230794911079E+04    0.22395E-03   -0.29277E-05  2977   0.330E-03    0.518E-01
RMM:  22    -0.230794928156E+04   -0.17077E-03   -0.73798E-06  2902   0.200E-03    0.537E-01
RMM:  23    -0.230794937565E+04   -0.94093E-04   -0.34647E-06  2682   0.159E-03    0.540E-01
RMM:  24    -0.230794924189E+04    0.13376E-03   -0.21806E-06  2364   0.114E-03    0.526E-01
RMM:  25    -0.230794698333E+04    0.22586E-02   -0.10354E-03  4275   0.122E-02    0.348E-01
RMM:  26    -0.230794261711E+04    0.43662E-02   -0.69114E-03  4915   0.323E-02    0.306E-01
RMM:  27    -0.230794191216E+04    0.70495E-03   -0.74896E-04  4093   0.144E-02    0.335E-01
RMM:  28    -0.230794122620E+04    0.68597E-03   -0.32144E-04  3815   0.669E-03    0.348E-01
RMM:  29    -0.230793954978E+04    0.16764E-02   -0.79712E-04  4290   0.120E-02    0.407E-01
RMM:  30    -0.230794379645E+04   -0.42467E-02   -0.43615E-03  4698   0.251E-02    0.351E-01
RMM:  31    -0.230795518832E+04   -0.11392E-01   -0.19495E-02  5010   0.539E-02    0.117E+00
RMM:  32    -0.230796038365E+04   -0.51953E-02   -0.48290E-03  4743   0.334E-02    0.139E+00
RMM:  33    -0.230795904885E+04    0.13348E-02   -0.45762E-04  3574   0.908E-03    0.118E+00
RMM:  34    -0.230796723875E+04   -0.81899E-02   -0.19670E-03  4824   0.173E-02    0.184E+00
RMM:  35    -0.230796014934E+04    0.70894E-02   -0.13194E-03  4540   0.156E-02    0.106E+00
RMM:  36    -0.230796391705E+04   -0.37677E-02   -0.45545E-04  3886   0.104E-02    0.165E+00
RMM:  37    -0.230796239321E+04    0.15238E-02   -0.58930E-05  2900   0.518E-03    0.135E+00
RMM:  38    -0.230796217082E+04    0.22239E-03   -0.11169E-05  2258   0.232E-03    0.144E+00
RMM:  39    -0.230796097307E+04    0.11978E-02   -0.40617E-05  2727   0.254E-03    0.132E+00
RMM:  40    -0.230795811492E+04    0.28581E-02   -0.23353E-04  3550   0.590E-03    0.111E+00
RMM:  41    -0.230795472061E+04    0.33943E-02   -0.48812E-04  3911   0.861E-03    0.879E-01
RMM:  42    -0.230794899485E+04    0.57258E-02   -0.37420E-03  4820   0.229E-02    0.468E-01
RMM:  43    -0.230794646234E+04    0.25325E-02   -0.20745E-03  4485   0.197E-02    0.454E-01
RMM:  44    -0.230794248954E+04    0.39728E-02   -0.72019E-03  4888   0.316E-02    0.430E-01
RMM:  45    -0.230794139175E+04    0.10978E-02   -0.13158E-03  4278   0.193E-02    0.482E-01
RMM:  46    -0.230794037639E+04    0.10154E-02   -0.74741E-04  4393   0.104E-02    0.514E-01
RMM:  47    -0.230793864052E+04    0.17359E-02   -0.94145E-04  4277   0.135E-02    0.580E-01
RMM:  48    -0.230793769554E+04    0.94498E-03   -0.36814E-04  3832   0.905E-03    0.624E-01
RMM:  49    -0.230793639076E+04    0.13048E-02   -0.44499E-04  3967   0.936E-03    0.682E-01
RMM:  50    -0.230793547962E+04    0.91114E-03   -0.21640E-04  3480   0.733E-03    0.724E-01
RMM:  51    -0.230793558604E+04   -0.10642E-03   -0.18663E-05  2945   0.386E-03    0.719E-01
RMM:  52    -0.230793571409E+04   -0.12806E-03   -0.41688E-06  2620   0.161E-03    0.713E-01
RMM:  53    -0.230793595653E+04   -0.24244E-03   -0.84032E-06  2573   0.164E-03    0.702E-01
RMM:  54    -0.230793669729E+04   -0.74076E-03   -0.90112E-05  3051   0.376E-03    0.667E-01
RMM:  55    -0.230793745868E+04   -0.76139E-03   -0.11355E-04  3163   0.426E-03    0.629E-01
RMM:  56    -0.230793830558E+04   -0.84689E-03   -0.14451E-04  3200   0.498E-03    0.587E-01
RMM:  57    -0.230793999351E+04   -0.16879E-02   -0.60206E-04  4165   0.962E-03    0.520E-01
RMM:  58    -0.230794113119E+04   -0.11377E-02   -0.41021E-04  3669   0.891E-03    0.485E-01
RMM:  59    -0.230794148044E+04   -0.34925E-03   -0.10474E-04  3117   0.533E-03    0.476E-01
RMM:  60    -0.230794142505E+04    0.55391E-04   -0.71357E-06  2753   0.279E-03    0.476E-01
RMM:  61    -0.230794149068E+04   -0.65633E-04   -0.35614E-06  2562   0.153E-03    0.475E-01
RMM:  62    -0.230794201405E+04   -0.52337E-03   -0.95793E-05  3185   0.407E-03    0.466E-01
RMM:  63    -0.230794188061E+04    0.13345E-03   -0.64707E-06  2601   0.250E-03    0.466E-01
RMM:  64    -0.230794187449E+04    0.61154E-05   -0.75260E-07  2057   0.867E-04
  21 F= -.23283703E+04 E0= -.23283630E+04  d E =-.147020E-01  mag=     5.9006
       N       E                     dE             d eps       ncg     rms          rms(c)
DAV:   1    -0.230792640474E+04    0.15476E-01   -0.52046E-01  4480   0.185E-01    0.327E-01
RMM:   2    -0.230792758524E+04   -0.11805E-02   -0.80136E-03  4923   0.290E-02    0.431E-01
RMM:   3    -0.230792682796E+04    0.75728E-03   -0.19492E-03  4476   0.182E-02    0.228E-01
RMM:   4    -0.230792659934E+04    0.22862E-03   -0.59184E-04  3785   0.102E-02    0.216E-01
RMM:   5    -0.230792620048E+04    0.39886E-03   -0.10360E-03  4297   0.131E-02    0.195E-01
RMM:   6    -0.230792612271E+04    0.77766E-04   -0.15613E-03  4413   0.162E-02    0.205E-01
RMM:   7    -0.230792643617E+04   -0.31346E-03   -0.15266E-03  4425   0.159E-02    0.171E-01
RMM:   8    -0.230792491716E+04    0.15190E-02   -0.93621E-03  4929   0.357E-02    0.401E-01
RMM:   9    -0.230792649354E+04   -0.15764E-02   -0.55207E-03  5200   0.311E-02    0.184E-01
RMM:  10    -0.230792665673E+04   -0.16319E-03   -0.84756E-04  4254   0.150E-02    0.111E-01
RMM:  11    -0.230792685077E+04   -0.19404E-03   -0.47222E-04  4045   0.908E-03    0.918E-02
RMM:  12    -0.230792708737E+04   -0.23660E-03   -0.43863E-04  4002   0.101E-02    0.101E-01
RMM:  13    -0.230792725522E+04   -0.16785E-03   -0.44760E-04  3936   0.923E-03    0.107E-01
RMM:  14    -0.230792727545E+04   -0.20226E-04   -0.61111E-05  3010   0.515E-03    0.103E-01
RMM:  15    -0.230792719801E+04    0.77436E-04   -0.38093E-05  2853   0.323E-03    0.800E-02
RMM:  16    -0.230792691556E+04    0.28245E-03   -0.14376E-03  4281   0.143E-02    0.732E-02
RMM:  17    -0.230792466272E+04    0.22528E-02   -0.98250E-03  4961   0.384E-02    0.312E-01
RMM:  18    -0.230792670428E+04   -0.20416E-02   -0.32100E-03  4892   0.251E-02    0.143E-01
RMM:  19    -0.230792717223E+04   -0.46794E-03   -0.15451E-03  4303   0.169E-02    0.116E-01
RMM:  20    -0.230792737934E+04   -0.20711E-03   -0.65342E-04  4013   0.116E-02    0.108E-01
RMM:  21    -0.230792764891E+04   -0.26957E-03   -0.68364E-04  4231   0.106E-02    0.133E-01
RMM:  22    -0.230792818916E+04   -0.54025E-03   -0.11606E-03  4428   0.136E-02    0.230E-01
RMM:  23    -0.230792827306E+04   -0.83901E-04   -0.16066E-04  3131   0.732E-03    0.225E-01
RMM:  24    -0.230792830469E+04   -0.31630E-04   -0.29181E-05  2975   0.301E-03    0.231E-01
RMM:  25    -0.230792831219E+04   -0.74983E-05   -0.35832E-06  2767   0.220E-03
  22 F= -.23283582E+04 E0= -.23283467E+04  d E =-.228459E-01  mag=     5.6274
       N       E                     dE             d eps       ncg     rms          rms(c)
DAV:   1    -0.230792338325E+04    0.49214E-02   -0.10167E+00  4480   0.266E-01    0.343E-01
RMM:   2    -0.230792631736E+04   -0.29341E-02   -0.39043E-03  4178   0.242E-02    0.757E-01
RMM:   3    -0.230792460562E+04    0.17117E-02   -0.17228E-03  4407   0.182E-02    0.314E-01
RMM:   4    -0.230792388667E+04    0.71895E-03   -0.12450E-03  4201   0.129E-02    0.329E-01
RMM:   5    -0.230792321253E+04    0.67415E-03   -0.55532E-04  3928   0.995E-03    0.211E-01
RMM:   6    -0.230792246041E+04    0.75212E-03   -0.10865E-03  4248   0.125E-02    0.171E-01
RMM:   7    -0.230792200260E+04    0.45781E-03   -0.41685E-04  3688   0.962E-03    0.185E-01
RMM:   8    -0.230792153411E+04    0.46849E-03   -0.35479E-04  3967   0.829E-03    0.194E-01
RMM:   9    -0.230792194400E+04   -0.40988E-03   -0.16794E-04  3299   0.643E-03    0.187E-01
RMM:  10    -0.230792309631E+04   -0.11523E-02   -0.22756E-03  4613   0.179E-02    0.197E-01
RMM:  11    -0.230792275440E+04    0.34191E-03   -0.14237E-04  3193   0.814E-03    0.157E-01
RMM:  12    -0.230792140967E+04    0.13447E-02   -0.43703E-03  4752   0.253E-02    0.241E-01
RMM:  13    -0.230791989218E+04    0.15175E-02   -0.38402E-03  4699   0.265E-02    0.398E-01
RMM:  14    -0.230792207241E+04   -0.21802E-02   -0.41102E-03  4739   0.250E-02    0.241E-01
RMM:  15    -0.230792405552E+04   -0.19831E-02   -0.77320E-03  5031   0.339E-02    0.323E-01
RMM:  16    -0.230793209425E+04   -0.80387E-02   -0.13305E-02  5115   0.423E-02    0.130E+00
RMM:  17    -0.230793068231E+04    0.14119E-02   -0.12047E-03  3972   0.228E-02    0.844E-01
RMM:  18    -0.230793107689E+04   -0.39459E-03   -0.24869E-04  3257   0.532E-03    0.106E+00
RMM:  19    -0.230793107162E+04    0.52718E-05   -0.16098E-05  2815   0.373E-03
  23 F= -.23283610E+04 E0= -.23283456E+04  d E =-.307820E-01  mag=     5.3665
       N       E                     dE             d eps       ncg     rms          rms(c)
DAV:   1    -0.230789174244E+04    0.39334E-01   -0.50927E-01  4480   0.188E-01    0.173E+00
RMM:   2    -0.230795226285E+04   -0.60520E-01   -0.77210E-02  4534   0.103E-01    0.320E+00
RMM:   3    -0.230796631717E+04   -0.14054E-01   -0.88206E-02  5076   0.110E-01    0.327E+00
RMM:   4    -0.230787391653E+04    0.92401E-01   -0.72286E-02  5381   0.927E-02    0.806E-01
RMM:   5    -0.230787117309E+04    0.27434E-02   -0.12475E-02  4883   0.459E-02    0.678E-01
RMM:   6    -0.230786466066E+04    0.65124E-02   -0.86216E-03  4595   0.368E-02    0.560E-01
RMM:   7    -0.230785471998E+04    0.99407E-02   -0.11275E-02  4814   0.444E-02    0.619E-01
RMM:   8    -0.230783771275E+04    0.17007E-01   -0.11894E-02  4936   0.477E-02    0.108E+00
RMM:   9    -0.230786430043E+04   -0.26588E-01   -0.17229E-02  4704   0.562E-02    0.469E-01
RMM:  10    -0.230788597174E+04   -0.21671E-01   -0.33174E-02  4854   0.718E-02    0.152E+00
RMM:  11    -0.230789165956E+04   -0.56878E-02   -0.72246E-03  4588   0.413E-02    0.167E+00
RMM:  12    -0.230791783097E+04   -0.26171E-01   -0.92688E-03  4921   0.352E-02    0.281E+00
RMM:  13    -0.230791567925E+04    0.21517E-02   -0.82721E-04  3710   0.214E-02    0.242E+00
RMM:  14    -0.230790763734E+04    0.80419E-02   -0.36997E-04  3581   0.820E-03    0.221E+00
RMM:  15    -0.230788759722E+04    0.20040E-01   -0.77929E-03  4776   0.338E-02    0.772E-01
RMM:  16    -0.230787496668E+04    0.12631E-01   -0.16850E-02  4997   0.527E-02    0.301E-01
RMM:  17    -0.230787191433E+04    0.30524E-02   -0.61492E-03  4743   0.361E-02    0.366E-01
RMM:  18    -0.230786827928E+04    0.36350E-02   -0.64406E-03  4967   0.313E-02    0.525E-01
RMM:  19    -0.230786259747E+04    0.56818E-02   -0.57231E-03  4734   0.340E-02    0.824E-01
RMM:  20    -0.230787390794E+04   -0.11310E-01   -0.19425E-02  4889   0.525E-02    0.439E-01
RMM:  21    -0.230789107293E+04   -0.17165E-01   -0.28818E-02  5081   0.674E-02    0.182E+00
RMM:  22    -0.230793161989E+04   -0.40547E-01   -0.32406E-02  5281   0.704E-02    0.310E+00
RMM:  23    -0.230793319690E+04   -0.15770E-02   -0.43750E-03  4790   0.326E-02    0.283E+00
RMM:  24    -0.230793866973E+04   -0.54728E-02   -0.10786E-03  4344   0.102E-02    0.297E+00
RMM:  25    -0.230795521763E+04   -0.16548E-01   -0.16815E-03  4458   0.166E-02    0.299E+00
RMM:  26    -0.230795376124E+04    0.14564E-02   -0.10236E-04  3065   0.753E-03    0.295E+00
RMM:  27    -0.230797573795E+04   -0.21977E-01   -0.25212E-03  4508   0.190E-02    0.277E+00
RMM:  28    -0.230797477912E+04    0.95883E-03   -0.15673E-04  3114   0.776E-03    0.275E+00
RMM:  29    -0.230797853468E+04   -0.37556E-02   -0.11828E-04  3071   0.394E-03    0.270E+00
RMM:  30    -0.230798228080E+04   -0.37461E-02   -0.10899E-04  3126   0.441E-03    0.265E+00
RMM:  31    -0.230798275226E+04   -0.47146E-03   -0.68747E-05  2889   0.373E-03    0.262E+00
RMM:  32    -0.230799103749E+04   -0.82852E-02   -0.57513E-04  3783   0.874E-03    0.246E+00
RMM:  33    -0.230800856792E+04   -0.17530E-01   -0.31735E-03  4461   0.205E-02    0.206E+00
RMM:  34    -0.230802052732E+04   -0.11959E-01   -0.25185E-03  4289   0.194E-02    0.174E+00
RMM:  35    -0.230802463470E+04   -0.41074E-02   -0.80662E-04  3783   0.110E-02    0.161E+00
RMM:  36    -0.230802498671E+04   -0.35200E-03   -0.11877E-04  3062   0.466E-03    0.159E+00
RMM:  37    -0.230802352931E+04    0.14574E-02   -0.84942E-04  4218   0.993E-03    0.157E+00
RMM:  38    -0.230802041649E+04    0.31128E-02   -0.46059E-04  3778   0.902E-03    0.162E+00
RMM:  39    -0.230802363000E+04   -0.32135E-02   -0.16911E-04  3239   0.597E-03    0.153E+00
RMM:  40    -0.230802630578E+04   -0.26758E-02   -0.22176E-04  3129   0.585E-03    0.143E+00
RMM:  41    -0.230802836833E+04   -0.20625E-02   -0.21952E-04  3135   0.568E-03    0.134E+00
RMM:  42    -0.230802954516E+04   -0.11768E-02   -0.15354E-04  3026   0.505E-03    0.128E+00
RMM:  43    -0.230803199863E+04   -0.24535E-02   -0.17013E-04  3222   0.562E-03    0.119E+00
RMM:  44    -0.230803347603E+04   -0.14774E-02   -0.86828E-05  2968   0.465E-03    0.113E+00
RMM:  45    -0.230803476562E+04   -0.12896E-02   -0.83130E-05  3038   0.441E-03    0.107E+00
RMM:  46    -0.230803538287E+04   -0.61725E-03   -0.34121E-05  2852   0.342E-03    0.105E+00
RMM:  47    -0.230803659547E+04   -0.12126E-02   -0.79631E-05  3078   0.406E-03    0.996E-01
RMM:  48    -0.230803684317E+04   -0.24770E-03   -0.17549E-05  2811   0.291E-03    0.987E-01
RMM:  49    -0.230803691698E+04   -0.73811E-04   -0.44534E-06  2531   0.161E-03    0.985E-01
RMM:  50    -0.230803686583E+04    0.51145E-04   -0.16720E-06  2349   0.134E-03    0.990E-01
RMM:  51    -0.230803597829E+04    0.88755E-03   -0.22737E-05  2397   0.191E-03    0.104E+00
RMM:  52    -0.230803632132E+04   -0.34304E-03   -0.98299E-06  2526   0.159E-03    0.102E+00
RMM:  53    -0.230803548961E+04    0.83171E-03   -0.44464E-05  2659   0.265E-03    0.105E+00
RMM:  54    -0.230803569845E+04   -0.20884E-03   -0.90237E-06  2343   0.184E-03    0.104E+00
RMM:  55    -0.230803593030E+04   -0.23185E-03   -0.49544E-06  2136   0.112E-03    0.103E+00
RMM:  56    -0.230803689829E+04   -0.96799E-03   -0.37894E-05  2674   0.243E-03    0.975E-01
RMM:  57    -0.230803866180E+04   -0.17635E-02   -0.15902E-04  3117   0.458E-03    0.874E-01
RMM:  58    -0.230804055128E+04   -0.18895E-02   -0.21996E-04  3182   0.553E-03    0.757E-01
RMM:  59    -0.230804188236E+04   -0.13311E-02   -0.14041E-04  3061   0.492E-03    0.666E-01
RMM:  60    -0.230804333830E+04   -0.14559E-02   -0.20558E-04  3308   0.607E-03    0.547E-01
RMM:  61    -0.230804443855E+04   -0.11003E-02   -0.17834E-04  3236   0.590E-03    0.436E-01
RMM:  62    -0.230804513675E+04   -0.69819E-03   -0.14788E-04  3089   0.560E-03    0.344E-01
RMM:  63    -0.230804524724E+04   -0.11050E-03   -0.22766E-05  2734   0.305E-03    0.328E-01
RMM:  64    -0.230804559336E+04   -0.34612E-03   -0.60352E-05  2913   0.344E-03    0.265E-01
RMM:  65    -0.230804597862E+04   -0.38526E-03   -0.12992E-04  3102   0.460E-03    0.170E-01
RMM:  66    -0.230804613550E+04   -0.15688E-03   -0.76871E-05  2870   0.395E-03    0.112E-01
RMM:  67    -0.230804625783E+04   -0.12233E-03   -0.18683E-04  3323   0.535E-03    0.736E-03
RMM:  68    -0.230804625784E+04   -0.68394E-08   -0.15339E-05  2613   0.284E-03
  24 F= -.23284794E+04 E0= -.23284789E+04  d E =-.921482E-03  mag=     3.9913
       N       E                     dE             d eps       ncg     rms          rms(c)
DAV:   1    -0.230810295236E+04   -0.56695E-01   -0.10266E+00  4480   0.271E-01    0.389E-01
RMM:   2    -0.230810283952E+04    0.11284E-03   -0.78574E-03  4484   0.297E-02    0.369E-01
RMM:   3    -0.230810272318E+04    0.11635E-03   -0.29002E-03  5090   0.191E-02    0.378E-01
RMM:   4    -0.230810180408E+04    0.91909E-03   -0.18860E-03  4299   0.159E-02    0.220E-01
RMM:   5    -0.230810166833E+04    0.13576E-03   -0.82306E-04  4040   0.119E-02    0.209E-01
RMM:   6    -0.230810161316E+04    0.55163E-04   -0.16881E-04  3168   0.747E-03    0.221E-01
RMM:   7    -0.230810151207E+04    0.10110E-03   -0.11135E-03  3930   0.132E-02    0.132E-01
RMM:   8    -0.230810097365E+04    0.53842E-03   -0.20277E-03  4213   0.173E-02    0.228E-01
RMM:   9    -0.230810111749E+04   -0.14384E-03   -0.10960E-04  3002   0.567E-03    0.203E-01
RMM:  10    -0.230810118922E+04   -0.71724E-04   -0.17111E-04  3320   0.660E-03    0.149E-01
RMM:  11    -0.230810155323E+04   -0.36401E-03   -0.14046E-03  4262   0.144E-02    0.537E-02
RMM:  12    -0.230810161593E+04   -0.62697E-04   -0.54551E-04  3581   0.928E-03    0.450E-02
RMM:  13    -0.230810171659E+04   -0.10066E-03   -0.28993E-04  3357   0.658E-03    0.652E-02
RMM:  14    -0.230810194022E+04   -0.22364E-03   -0.40621E-04  3626   0.851E-03    0.135E-01
RMM:  15    -0.230810178600E+04    0.15422E-03   -0.16553E-04  3102   0.627E-03    0.815E-02
RMM:  16    -0.230810171863E+04    0.67372E-04   -0.17643E-04  3157   0.558E-03    0.691E-02
RMM:  17    -0.230810161677E+04    0.10186E-03   -0.53861E-04  3733   0.853E-03    0.704E-02
RMM:  18    -0.230810147103E+04    0.14573E-03   -0.45994E-04  3467   0.845E-03    0.101E-01
RMM:  19    -0.230810138242E+04    0.88617E-04   -0.16337E-04  3068   0.543E-03    0.120E-01
RMM:  20    -0.230810140337E+04   -0.20950E-04   -0.10186E-05  2680   0.259E-03    0.116E-01
RMM:  21    -0.230810147872E+04   -0.75356E-04   -0.40701E-05  2608   0.259E-03    0.981E-02
RMM:  22    -0.230810158334E+04   -0.10461E-03   -0.14954E-04  3045   0.465E-03    0.762E-02
RMM:  23    -0.230810170495E+04   -0.12162E-03   -0.31595E-04  3341   0.634E-03    0.681E-02
RMM:  24    -0.230810189852E+04   -0.19357E-03   -0.53794E-04  3571   0.855E-03    0.102E-01
RMM:  25    -0.230810201927E+04   -0.12075E-03   -0.19884E-04  3122   0.599E-03    0.133E-01
RMM:  26    -0.230810200747E+04    0.11803E-04   -0.25473E-05  2714   0.286E-03    0.128E-01
RMM:  27    -0.230810198014E+04    0.27327E-04   -0.39876E-06  2370   0.149E-03    0.122E-01
RMM:  28    -0.230810184839E+04    0.13175E-03   -0.12611E-04  2931   0.423E-03    0.910E-02
RMM:  29    -0.230810168917E+04    0.15922E-03   -0.41954E-04  3543   0.742E-03    0.733E-02
RMM:  30    -0.230810156003E+04    0.12914E-03   -0.39546E-04  3300   0.732E-03    0.877E-02
RMM:  31    -0.230810144419E+04    0.11584E-03   -0.26864E-04  3272   0.612E-03    0.113E-01
RMM:  32    -0.230810147436E+04   -0.30164E-04   -0.13371E-05  2635   0.292E-03    0.106E-01
RMM:  33    -0.230810147904E+04   -0.46806E-05   -0.20886E-06  2183   0.110E-03
  25 F= -.23285277E+04 E0= -.23285257E+04  d E =-.406356E-02  mag=     3.9860
