       N       E                     dE             d eps       ncg     rms          rms(c)
DAV:   1     0.124907221241E+05    0.12491E+05   -0.82104E+05  4416   0.143E+03
DAV:   2    -0.109017663490E+04   -0.13581E+05   -0.13039E+05  5368   0.329E+02
DAV:   3    -0.247297799078E+04   -0.13828E+04   -0.13713E+04  5280   0.108E+02
DAV:   4    -0.251185056039E+04   -0.38873E+02   -0.38693E+02  6312   0.255E+01
DAV:   5    -0.251263267844E+04   -0.78212E+00   -0.78107E+00  5504   0.292E+00    0.170E+02
RMM:   6    -0.147929901302E+04    0.10333E+04   -0.19450E+03  4360   0.388E+01    0.733E+01
RMM:   7    -0.164265779381E+04   -0.16336E+03   -0.26613E+02  4965   0.136E+01    0.515E+01
RMM:   8    -0.170153152247E+04   -0.58874E+02   -0.66410E+01  4892   0.857E+00    0.396E+01
RMM:   9    -0.181022389882E+04   -0.10869E+03   -0.59679E+01  4468   0.769E+00    0.266E+01
RMM:  10    -0.195087249726E+04   -0.14065E+03   -0.52029E+01  4620   0.713E+00    0.173E+01
RMM:  11    -0.207988877753E+04   -0.12902E+03   -0.67713E+01  4369   0.632E+00    0.134E+01
RMM:  12    -0.221461462603E+04   -0.13473E+03   -0.10767E+02  4514   0.778E+00    0.833E+00
RMM:  13    -0.227734041567E+04   -0.62726E+02   -0.53775E+01  4458   0.554E+00    0.597E+00
RMM:  14    -0.229762106272E+04   -0.20281E+02   -0.20016E+01  4680   0.358E+00    0.392E+00
RMM:  15    -0.230498756317E+04   -0.73665E+01   -0.71155E+00  4625   0.199E+00    0.246E+00
RMM:  16    -0.230806461241E+04   -0.30770E+01   -0.17718E+00  4596   0.108E+00    0.151E+00
RMM:  17    -0.230950723168E+04   -0.14426E+01   -0.57161E-01  4834   0.606E-01    0.735E-01
RMM:  18    -0.230983359314E+04   -0.32636E+00   -0.15403E-01  4795   0.318E-01    0.369E-01
RMM:  19    -0.230987260319E+04   -0.39010E-01   -0.27163E-02  4785   0.168E-01    0.219E-01
RMM:  20    -0.230989853565E+04   -0.25932E-01   -0.89188E-03  4489   0.757E-02    0.150E-01
RMM:  21    -0.230991063708E+04   -0.12101E-01   -0.33283E-03  4445   0.557E-02    0.104E-01
RMM:  22    -0.230992407273E+04   -0.13436E-01   -0.39043E-03  4356   0.498E-02    0.631E-02
RMM:  23    -0.230993208374E+04   -0.80110E-02   -0.24381E-03  4494   0.442E-02    0.565E-02
RMM:  24    -0.230993564700E+04   -0.35633E-02   -0.12459E-03  4761   0.297E-02    0.338E-02
RMM:  25    -0.230993833665E+04   -0.26897E-02   -0.69854E-04  4022   0.219E-02    0.228E-02
RMM:  26    -0.230993987456E+04   -0.15379E-02   -0.44299E-04  3980   0.184E-02    0.113E-02
RMM:  27    -0.230994041213E+04   -0.53758E-03   -0.16985E-04  3744   0.131E-02    0.621E-03
RMM:  28    -0.230994064246E+04   -0.23032E-03   -0.78974E-05  3577   0.874E-03    0.389E-03
RMM:  29    -0.230994074528E+04   -0.10282E-03   -0.37650E-05  3281   0.701E-03    0.247E-03
RMM:  30    -0.230994079325E+04   -0.47968E-04   -0.21432E-05  3055   0.506E-03    0.146E-03
RMM:  31    -0.230994080489E+04   -0.11639E-04   -0.10049E-05  2841   0.395E-03    0.958E-04
RMM:  32    -0.230994080713E+04   -0.22441E-05   -0.36701E-06  2397   0.238E-03
   1 F= -.23300074E+04 E0= -.23300074E+04  d E =-.233001E+04  mag=     2.0000
       N       E                     dE             d eps       ncg     rms          rms(c)
DAV:   1    -0.230941104920E+04    0.52976E+00   -0.57457E+01  4736   0.589E+00    0.209E+00
RMM:   2    -0.231006213131E+04   -0.65108E+00   -0.67333E+00  6526   0.134E+00    0.127E+00
RMM:   3    -0.231009972471E+04   -0.37593E-01   -0.59812E-01  5716   0.371E-01    0.102E+00
RMM:   4    -0.231009367683E+04    0.60479E-02   -0.82473E-02  5946   0.110E-01    0.641E-01
RMM:   5    -0.231008792932E+04    0.57475E-02   -0.26211E-02  5118   0.767E-02    0.285E-01
RMM:   6    -0.231008796573E+04   -0.36410E-04   -0.54945E-03  4861   0.537E-02    0.136E-01
RMM:   7    -0.231008799149E+04   -0.25761E-04   -0.73671E-04  4505   0.195E-02    0.908E-02
RMM:   8    -0.231008784495E+04    0.14654E-03   -0.28956E-04  4051   0.124E-02    0.393E-02
RMM:   9    -0.231008783954E+04    0.54171E-05   -0.12886E-04  3435   0.742E-03    0.198E-02
RMM:  10    -0.231008783707E+04    0.24675E-05   -0.24761E-05  2856   0.479E-03
   2 F= -.23301821E+04 E0= -.23301821E+04  d E =-.174675E+00  mag=     2.0000
       N       E                     dE             d eps       ncg     rms          rms(c)
DAV:   1    -0.230997453045E+04    0.11331E+00   -0.11624E+01  4656   0.261E+00    0.932E-01
RMM:   2    -0.231010293447E+04   -0.12840E+00   -0.13153E+00  6411   0.565E-01    0.579E-01
RMM:   3    -0.231011220855E+04   -0.92741E-02   -0.14016E-01  5523   0.207E-01    0.371E-01
RMM:   4    -0.231011164551E+04    0.56304E-03   -0.19667E-02  5520   0.554E-02    0.230E-01
RMM:   5    -0.231011093485E+04    0.71066E-03   -0.31903E-03  5322   0.314E-02    0.936E-02
RMM:   6    -0.231011096097E+04   -0.26127E-04   -0.53453E-04  4245   0.158E-02    0.414E-02
RMM:   7    -0.231011096412E+04   -0.31447E-05   -0.75415E-05  3110   0.720E-03
   3 F= -.23302004E+04 E0= -.23302004E+04  d E =-.192969E+00  mag=     2.0000
       N       E                     dE             d eps       ncg     rms          rms(c)
DAV:   1    -0.231009994767E+04    0.11013E-01   -0.16565E+00  4648   0.994E-01    0.353E-01
RMM:   2    -0.231011794003E+04   -0.17992E-01   -0.18593E-01  6381   0.211E-01    0.211E-01
RMM:   3    -0.231011898505E+04   -0.10450E-02   -0.17777E-02  5237   0.776E-02    0.142E-01
RMM:   4    -0.231011886370E+04    0.12135E-03   -0.24598E-03  4851   0.210E-02    0.861E-02
RMM:   5    -0.231011875291E+04    0.11079E-03   -0.60632E-04  4503   0.134E-02    0.275E-02
RMM:   6    -0.231011875873E+04   -0.58266E-05   -0.67652E-05  3030   0.829E-03
   4 F= -.23302100E+04 E0= -.23302100E+04  d E =-.202627E+00  mag=     2.0000
       N       E                     dE             d eps       ncg     rms          rms(c)
DAV:   1    -0.231017476967E+04   -0.56017E-01   -0.91184E+00  4464   0.274E+00    0.856E-01
RMM:   2    -0.231021762923E+04   -0.42860E-01   -0.50185E-01  6220   0.481E-01    0.449E-01
RMM:   3    -0.231021801457E+04   -0.38534E-03   -0.51318E-02  5261   0.159E-01    0.311E-01
RMM:   4    -0.231021703987E+04    0.97470E-03   -0.88173E-03  5192   0.540E-02    0.173E-01
RMM:   5    -0.231021652069E+04    0.51918E-03   -0.25596E-03  4917   0.322E-02    0.710E-02
RMM:   6    -0.231021645019E+04    0.70501E-04   -0.36993E-04  4397   0.180E-02    0.413E-02
RMM:   7    -0.231021642684E+04    0.23344E-04   -0.11088E-04  3704   0.812E-03    0.238E-02
RMM:   8    -0.231021641686E+04    0.99798E-05   -0.31854E-05  3030   0.607E-03
   5 F= -.23303078E+04 E0= -.23303078E+04  d E =-.977384E-01  mag=     2.0000
       N       E                     dE             d eps       ncg     rms          rms(c)
DAV:   1    -0.231021676756E+04   -0.34072E-03   -0.29862E+00  4544   0.156E+00    0.484E-01
RMM:   2    -0.231023079935E+04   -0.14032E-01   -0.16346E-01  6217   0.270E-01    0.253E-01
RMM:   3    -0.231023083714E+04   -0.37787E-04   -0.15467E-02  5207   0.902E-02    0.172E-01
RMM:   4    -0.231023049453E+04    0.34261E-03   -0.27768E-03  4910   0.306E-02    0.956E-02
RMM:   5    -0.231023033428E+04    0.16025E-03   -0.75747E-04  4698   0.190E-02    0.388E-02
RMM:   6    -0.231023031026E+04    0.24021E-04   -0.11478E-04  3815   0.103E-02    0.230E-02
RMM:   7    -0.231023030228E+04    0.79763E-05   -0.39138E-05  3085   0.581E-03
   6 F= -.23303217E+04 E0= -.23303217E+04  d E =-.111625E+00  mag=     2.0000
       N       E                     dE             d eps       ncg     rms          rms(c)
DAV:   1    -0.231024688797E+04   -0.16578E-01   -0.63366E+00  4464   0.224E+00    0.629E-01
RMM:   2    -0.231028424680E+04   -0.37359E-01   -0.39914E-01  6155   0.379E-01    0.353E-01
RMM:   3    -0.231028621422E+04   -0.19674E-02   -0.37507E-02  5278   0.135E-01    0.256E-01
RMM:   4    -0.231028579620E+04    0.41802E-03   -0.51212E-03  5156   0.354E-02    0.155E-01
RMM:   5    -0.231028546540E+04    0.33079E-03   -0.16051E-03  4705   0.249E-02    0.538E-02
RMM:   6    -0.231028546560E+04   -0.19211E-06   -0.18669E-04  3895   0.157E-02    0.303E-02
RMM:   7    -0.231028546780E+04   -0.22080E-05   -0.42537E-05  2929   0.487E-03
   7 F= -.23303775E+04 E0= -.23303775E+04  d E =-.558205E-01  mag=     2.0000
       N       E                     dE             d eps       ncg     rms          rms(c)
DAV:   1    -0.231027706669E+04    0.83989E-02   -0.32741E+00  4560   0.161E+00    0.451E-01
RMM:   2    -0.231029647587E+04   -0.19409E-01   -0.20718E-01  6125   0.270E-01    0.253E-01
RMM:   3    -0.231029740279E+04   -0.92692E-03   -0.18530E-02  5222   0.995E-02    0.178E-01
RMM:   4    -0.231029717881E+04    0.22398E-03   -0.26557E-03  4910   0.261E-02    0.108E-01
RMM:   5    -0.231029702463E+04    0.15418E-03   -0.80644E-04  4611   0.183E-02    0.368E-02
RMM:   6    -0.231029702525E+04   -0.62704E-06   -0.82540E-05  3343   0.108E-02
   8 F= -.23303895E+04 E0= -.23303895E+04  d E =-.677922E-01  mag=     2.0000
       N       E                     dE             d eps       ncg     rms          rms(c)
DAV:   1    -0.231030056857E+04   -0.35439E-02   -0.73549E+00  4416   0.241E+00    0.710E-01
RMM:   2    -0.231034881703E+04   -0.48248E-01   -0.50959E-01  6174   0.409E-01    0.402E-01
RMM:   3    -0.231035149510E+04   -0.26781E-02   -0.48662E-02  5232   0.144E-01    0.266E-01
RMM:   4    -0.231035097092E+04    0.52418E-03   -0.66774E-03  5337   0.411E-02    0.158E-01
RMM:   5    -0.231035067911E+04    0.29181E-03   -0.17595E-03  4695   0.259E-02    0.558E-02
RMM:   6    -0.231035066796E+04    0.11150E-04   -0.18667E-04  4080   0.155E-02    0.320E-02
RMM:   7    -0.231035066273E+04    0.52270E-05   -0.49619E-05  3072   0.549E-03
   9 F= -.23304446E+04 E0= -.23304446E+04  d E =-.551865E-01  mag=     2.0000
       N       E                     dE             d eps       ncg     rms          rms(c)
DAV:   1    -0.231028850046E+04    0.62167E-01   -0.12684E+01  4376   0.317E+00    0.932E-01
RMM:   2    -0.231037206277E+04   -0.83562E-01   -0.88131E-01  6175   0.542E-01    0.528E-01
RMM:   3    -0.231037705204E+04   -0.49893E-02   -0.87496E-02  5234   0.193E-01    0.353E-01
RMM:   4    -0.231037611779E+04    0.93425E-03   -0.11589E-02  5529   0.542E-02    0.210E-01
RMM:   5    -0.231037556381E+04    0.55398E-03   -0.30225E-03  4754   0.338E-02    0.739E-02
RMM:   6    -0.231037555486E+04    0.89463E-05   -0.38539E-04  4371   0.208E-02    0.407E-02
RMM:   7    -0.231037554364E+04    0.11219E-04   -0.78402E-05  3444   0.702E-03    0.238E-02
RMM:   8    -0.231037553568E+04    0.79592E-05   -0.31028E-05  2961   0.515E-03
  10 F= -.23304711E+04 E0= -.23304711E+04  d E =-.816361E-01  mag=     2.0000
       N       E                     dE             d eps       ncg     rms          rms(c)
DAV:   1    -0.231035137154E+04    0.24172E-01   -0.11506E+01  4444   0.319E+00    0.109E+00
RMM:   2    -0.231042285535E+04   -0.71484E-01   -0.76989E-01  5963   0.523E-01    0.488E-01
RMM:   3    -0.231042519490E+04   -0.23395E-02   -0.66803E-02  5065   0.208E-01    0.310E-01
RMM:   4    -0.231042455575E+04    0.63915E-03   -0.10474E-02  5282   0.568E-02    0.175E-01
RMM:   5    -0.231042412793E+04    0.42782E-03   -0.22414E-03  4793   0.366E-02    0.611E-02
RMM:   6    -0.231042410242E+04    0.25513E-04   -0.29168E-04  4418   0.175E-02    0.334E-02
RMM:   7    -0.231042408679E+04    0.15626E-04   -0.63280E-05  3482   0.861E-03    0.193E-02
RMM:   8    -0.231042407742E+04    0.93678E-05   -0.22934E-05  2932   0.483E-03
  11 F= -.23305194E+04 E0= -.23305194E+04  d E =-.482726E-01  mag=     2.0000
       N       E                     dE             d eps       ncg     rms          rms(c)
DAV:   1    -0.231040538316E+04    0.18704E-01   -0.44543E+00  4464   0.198E+00    0.678E-01
RMM:   2    -0.231043287122E+04   -0.27488E-01   -0.29665E-01  5879   0.322E-01    0.302E-01
RMM:   3    -0.231043358360E+04   -0.71239E-03   -0.24276E-02  4973   0.136E-01    0.187E-01
RMM:   4    -0.231043334185E+04    0.24175E-03   -0.42143E-03  5058   0.357E-02    0.105E-01
RMM:   5    -0.231043317220E+04    0.16966E-03   -0.80269E-04  4702   0.236E-02    0.341E-02
RMM:   6    -0.231043315864E+04    0.13559E-04   -0.10581E-04  3921   0.103E-02    0.197E-02
RMM:   7    -0.231043315002E+04    0.86204E-05   -0.26068E-05  2964   0.617E-03
  12 F= -.23305281E+04 E0= -.23305281E+04  d E =-.570408E-01  mag=     2.0000
       N       E                     dE             d eps       ncg     rms          rms(c)
DAV:   1    -0.231041272914E+04    0.20429E-01   -0.10213E+01  4376   0.296E+00    0.855E-01
RMM:   2    -0.231048171415E+04   -0.68985E-01   -0.73557E-01  5984   0.481E-01    0.488E-01
RMM:   3    -0.231048512239E+04   -0.34082E-02   -0.62146E-02  5126   0.193E-01    0.318E-01
RMM:   4    -0.231048435293E+04    0.76946E-03   -0.98453E-03  5350   0.493E-02    0.186E-01
RMM:   5    -0.231048389977E+04    0.45316E-03   -0.19468E-03  4729   0.318E-02    0.598E-02
RMM:   6    -0.231048389260E+04    0.71767E-05   -0.25300E-04  4325   0.161E-02    0.309E-02
RMM:   7    -0.231048388683E+04    0.57686E-05   -0.57660E-05  3211   0.677E-03
  13 F= -.23305779E+04 E0= -.23305779E+04  d E =-.497478E-01  mag=     2.0000
       N       E                     dE             d eps       ncg     rms          rms(c)
DAV:   1    -0.231043850643E+04    0.45386E-01   -0.90360E+00  4376   0.278E+00    0.809E-01
RMM:   2    -0.231049931614E+04   -0.60810E-01   -0.64940E-01  5960   0.452E-01    0.461E-01
RMM:   3    -0.231050231596E+04   -0.29998E-02   -0.55531E-02  5114   0.186E-01    0.299E-01
RMM:   4    -0.231050163495E+04    0.68101E-03   -0.87847E-03  5316   0.468E-02    0.174E-01
RMM:   5    -0.231050123215E+04    0.40280E-03   -0.16928E-03  4770   0.301E-02    0.549E-02
RMM:   6    -0.231050122285E+04    0.93016E-05   -0.22878E-04  4263   0.149E-02    0.285E-02
RMM:   7    -0.231050121666E+04    0.61963E-05   -0.54589E-05  3192   0.677E-03
  14 F= -.23305942E+04 E0= -.23305942E+04  d E =-.660746E-01  mag=     2.0000
       N       E                     dE             d eps       ncg     rms          rms(c)
DAV:   1    -0.231047928755E+04    0.21935E-01   -0.11899E+01  4376   0.324E+00    0.908E-01
RMM:   2    -0.231054136972E+04   -0.62082E-01   -0.67382E-01  5836   0.509E-01    0.504E-01
RMM:   3    -0.231054364558E+04   -0.22759E-02   -0.60687E-02  5012   0.217E-01    0.333E-01
RMM:   4    -0.231054269402E+04    0.95156E-03   -0.94998E-03  5278   0.544E-02    0.186E-01
RMM:   5    -0.231054232545E+04    0.36857E-03   -0.23518E-03  4693   0.373E-02    0.560E-02
RMM:   6    -0.231054233297E+04   -0.75138E-05   -0.35170E-04  4291   0.169E-02    0.302E-02
RMM:   7    -0.231054232527E+04    0.76973E-05   -0.66534E-05  3228   0.785E-03
  15 F= -.23306349E+04 E0= -.23306349E+04  d E =-.406868E-01  mag=     2.0000
       N       E                     dE             d eps       ncg     rms          rms(c)
DAV:   1    -0.231053793076E+04    0.44022E-02   -0.15128E+00  4576   0.116E+00    0.326E-01
RMM:   2    -0.231054581643E+04   -0.78857E-02   -0.85774E-02  5771   0.182E-01    0.178E-01
RMM:   3    -0.231054606734E+04   -0.25091E-03   -0.74062E-03  4870   0.785E-02    0.113E-01
RMM:   4    -0.231054594890E+04    0.11844E-03   -0.12653E-03  4730   0.204E-02    0.602E-02
RMM:   5    -0.231054591752E+04    0.31381E-04   -0.25027E-04  4207   0.146E-02    0.162E-02
RMM:   6    -0.231054591648E+04    0.10436E-05   -0.31346E-05  2983   0.550E-03
  16 F= -.23306383E+04 E0= -.23306383E+04  d E =-.440796E-01  mag=     2.0000
       N       E                     dE             d eps       ncg     rms          rms(c)
DAV:   1    -0.231054862197E+04   -0.27045E-02   -0.83636E+00  4376   0.272E+00    0.697E-01
RMM:   2    -0.231058385544E+04   -0.35233E-01   -0.39251E-01  5678   0.409E-01    0.397E-01
RMM:   3    -0.231058463521E+04   -0.77977E-03   -0.33954E-02  4867   0.178E-01    0.263E-01
RMM:   4    -0.231058402528E+04    0.60993E-03   -0.57162E-03  5210   0.439E-02    0.145E-01
RMM:   5    -0.231058382489E+04    0.20039E-03   -0.14340E-03  4667   0.298E-02    0.420E-02
RMM:   6    -0.231058382083E+04    0.40605E-05   -0.20762E-04  3948   0.130E-02    0.223E-02
RMM:   7    -0.231058381767E+04    0.31638E-05   -0.40526E-05  2926   0.639E-03
  17 F= -.23306758E+04 E0= -.23306758E+04  d E =-.375448E-01  mag=     2.0000
       N       E                     dE             d eps       ncg     rms          rms(c)
DAV:   1    -0.231056015222E+04    0.23669E-01   -0.88943E+00  4376   0.281E+00    0.719E-01
RMM:   2    -0.231059763289E+04   -0.37481E-01   -0.41804E-01  5655   0.425E-01    0.411E-01
RMM:   3    -0.231059846082E+04   -0.82793E-03   -0.36832E-02  4832   0.189E-01    0.274E-01
RMM:   4    -0.231059779424E+04    0.66658E-03   -0.60758E-03  5240   0.453E-02    0.152E-01
RMM:   5    -0.231059755916E+04    0.23508E-03   -0.15948E-03  4677   0.311E-02    0.454E-02
RMM:   6    -0.231059755412E+04    0.50357E-05   -0.23433E-04  4065   0.138E-02    0.234E-02
RMM:   7    -0.231059755365E+04    0.47495E-06   -0.44254E-05  2973   0.672E-03
  18 F= -.23306891E+04 E0= -.23306891E+04  d E =-.507795E-01  mag=     2.0000
       N       E                     dE             d eps       ncg     rms          rms(c)
DAV:   1    -0.231060571716E+04   -0.81630E-02   -0.85102E+00  4388   0.280E+00    0.734E-01
RMM:   2    -0.231063568508E+04   -0.29968E-01   -0.34354E-01  5554   0.423E-01    0.397E-01
RMM:   3    -0.231063558162E+04    0.10346E-03   -0.29015E-02  4794   0.185E-01    0.259E-01
RMM:   4    -0.231063496764E+04    0.61398E-03   -0.52972E-03  5121   0.471E-02    0.138E-01
RMM:   5    -0.231063483555E+04    0.13209E-03   -0.13146E-03  4693   0.325E-02    0.414E-02
RMM:   6    -0.231063482702E+04    0.85302E-05   -0.21379E-04  4003   0.119E-02    0.219E-02
RMM:   7    -0.231063482272E+04    0.42999E-05   -0.39321E-05  2987   0.718E-03
  19 F= -.23307257E+04 E0= -.23307257E+04  d E =-.366397E-01  mag=     2.0000
       N       E                     dE             d eps       ncg     rms          rms(c)
DAV:   1    -0.231062487711E+04    0.99499E-02   -0.67987E+00  4400   0.250E+00    0.656E-01
RMM:   2    -0.231064880560E+04   -0.23928E-01   -0.27448E-01  5540   0.377E-01    0.354E-01
RMM:   3    -0.231064864779E+04    0.15781E-03   -0.23148E-02  4825   0.164E-01    0.230E-01
RMM:   4    -0.231064815294E+04    0.49484E-03   -0.42542E-03  5096   0.421E-02    0.122E-01
RMM:   5    -0.231064804022E+04    0.11272E-03   -0.10222E-03  4631   0.292E-02    0.365E-02
RMM:   6    -0.231064803098E+04    0.92465E-05   -0.16538E-04  3886   0.106E-02    0.198E-02
RMM:   7    -0.231064802565E+04    0.53256E-05   -0.31131E-05  2911   0.668E-03
  20 F= -.23307383E+04 E0= -.23307383E+04  d E =-.492021E-01  mag=     2.0000
       N       E                     dE             d eps       ncg     rms          rms(c)
DAV:   1    -0.231066647721E+04   -0.18446E-01   -0.34242E+00  4464   0.176E+00    0.540E-01
RMM:   2    -0.231067371304E+04   -0.72358E-02   -0.94819E-02  5032   0.261E-01    0.258E-01
RMM:   3    -0.231067250451E+04    0.12085E-02   -0.60734E-03  4689   0.119E-01    0.149E-01
RMM:   4    -0.231067224387E+04    0.26065E-03   -0.26095E-03  4547   0.394E-02    0.583E-02
RMM:   5    -0.231067221388E+04    0.29985E-04   -0.24411E-04  4419   0.255E-02    0.245E-02
RMM:   6    -0.231067219966E+04    0.14228E-04   -0.10829E-04  4028   0.705E-03    0.144E-02
RMM:   7    -0.231067219504E+04    0.46184E-05   -0.12457E-05  2809   0.573E-03
  21 F= -.23307622E+04 E0= -.23307622E+04  d E =-.238878E-01  mag=     2.0000
       N       E                     dE             d eps       ncg     rms          rms(c)
DAV:   1    -0.231067410311E+04   -0.19035E-02   -0.12292E+00  4496   0.106E+00    0.321E-01
RMM:   2    -0.231067671147E+04   -0.26084E-02   -0.34237E-02  5015   0.157E-01    0.154E-01
RMM:   3    -0.231067626286E+04    0.44861E-03   -0.21833E-03  4666   0.708E-02    0.894E-02
RMM:   4    -0.231067615789E+04    0.10497E-03   -0.95181E-04  4560   0.238E-02    0.350E-02
RMM:   5    -0.231067614483E+04    0.13059E-04   -0.86197E-05  3773   0.153E-02    0.149E-02
RMM:   6    -0.231067613899E+04    0.58422E-05   -0.41095E-05  3222   0.463E-03
  22 F= -.23307659E+04 E0= -.23307659E+04  d E =-.276539E-01  mag=     2.0000
       N       E                     dE             d eps       ncg     rms          rms(c)
DAV:   1    -0.231069025487E+04   -0.14110E-01   -0.36457E+00  4400   0.176E+00    0.460E-01
RMM:   2    -0.231069710833E+04   -0.68535E-02   -0.87918E-02  5077   0.247E-01    0.248E-01
RMM:   3    -0.231069605647E+04    0.10519E-02   -0.51372E-03  4615   0.113E-01    0.144E-01
RMM:   4    -0.231069589649E+04    0.15998E-03   -0.26033E-03  4508   0.369E-02    0.474E-02
RMM:   5    -0.231069587865E+04    0.17845E-04   -0.15517E-04  4075   0.228E-02    0.229E-02
RMM:   6    -0.231069587218E+04    0.64700E-05   -0.12028E-04  3987   0.755E-03    0.142E-02
RMM:   7    -0.231069586881E+04    0.33616E-05   -0.10492E-05  2821   0.584E-03
  23 F= -.23307855E+04 E0= -.23307855E+04  d E =-.195831E-01  mag=     2.0000
       N       E                     dE             d eps       ncg     rms          rms(c)
DAV:   1    -0.231069676850E+04   -0.89632E-03   -0.29111E+00  4416   0.157E+00    0.409E-01
RMM:   2    -0.231070228070E+04   -0.55122E-02   -0.70511E-02  5009   0.219E-01    0.220E-01
RMM:   3    -0.231070140421E+04    0.87649E-03   -0.39355E-03  4715   0.961E-02    0.128E-01
RMM:   4    -0.231070126937E+04    0.13484E-03   -0.20078E-03  4479   0.326E-02    0.421E-02
RMM:   5    -0.231070125832E+04    0.11054E-04   -0.12339E-04  3880   0.201E-02    0.200E-02
RMM:   6    -0.231070125239E+04    0.59229E-05   -0.93123E-05  3819   0.667E-03
  24 F= -.23307907E+04 E0= -.23307907E+04  d E =-.248114E-01  mag=     2.0000
       N       E                     dE             d eps       ncg     rms          rms(c)
DAV:   1    -0.231071367378E+04   -0.12415E-01   -0.18071E+00  4448   0.123E+00    0.307E-01
RMM:   2    -0.231071749949E+04   -0.38257E-02   -0.47552E-02  5559   0.177E-01    0.170E-01
RMM:   3    -0.231071709190E+04    0.40759E-03   -0.27473E-03  4799   0.707E-02    0.100E-01
RMM:   4    -0.231071699667E+04    0.95225E-04   -0.10847E-03  4615   0.233E-02    0.330E-02
RMM:   5    -0.231071699768E+04   -0.10050E-05   -0.72740E-05  3498   0.139E-02
  25 F= -.23308065E+04 E0= -.23308065E+04  d E =-.157466E-01  mag=     2.0000
       N       E                     dE             d eps       ncg     rms          rms(c)
DAV:   1    -0.231070980821E+04    0.71885E-02   -0.14315E+01  4376   0.347E+00    0.866E-01
RMM:   2    -0.231074046532E+04   -0.30657E-01   -0.38171E-01  5218   0.492E-01    0.480E-01
RMM:   3    -0.231073711839E+04    0.33469E-02   -0.24442E-02  4629   0.222E-01    0.293E-01
RMM:   4    -0.231073637650E+04    0.74189E-03   -0.91050E-03  4599   0.667E-02    0.131E-01
RMM:   5    -0.231073628267E+04    0.93835E-04   -0.10494E-03  4689   0.429E-02    0.465E-02
RMM:   6    -0.231073624912E+04    0.33553E-04   -0.24413E-04  4652   0.980E-03    0.262E-02
RMM:   7    -0.231073623592E+04    0.13200E-04   -0.39910E-05  2920   0.718E-03    0.135E-02
RMM:   8    -0.231073623284E+04    0.30754E-05   -0.19926E-05  2850   0.403E-03
  26 F= -.23308256E+04 E0= -.23308256E+04  d E =-.349020E-01  mag=     2.0000
       N       E                     dE             d eps       ncg     rms          rms(c)
DAV:   1    -0.231074799176E+04   -0.11756E-01   -0.20906E+00  4432   0.132E+00    0.373E-01
RMM:   2    -0.231075386659E+04   -0.58748E-02   -0.70957E-02  5545   0.196E-01    0.196E-01
RMM:   3    -0.231075343022E+04    0.43638E-03   -0.41442E-03  4701   0.805E-02    0.116E-01
RMM:   4    -0.231075329813E+04    0.13208E-03   -0.14049E-03  4643   0.263E-02    0.435E-02
RMM:   5    -0.231075330261E+04   -0.44768E-05   -0.11074E-04  3921   0.165E-02    0.167E-02
RMM:   6    -0.231075329709E+04    0.55254E-05   -0.32221E-05  3034   0.441E-03
  27 F= -.23308429E+04 E0= -.23308429E+04  d E =-.173051E-01  mag=     2.0000
       N       E                     dE             d eps       ncg     rms          rms(c)
DAV:   1    -0.231074016315E+04    0.13139E-01   -0.11371E+01  4376   0.308E+00    0.871E-01
RMM:   2    -0.231077223756E+04   -0.32074E-01   -0.38775E-01  5393   0.456E-01    0.461E-01
RMM:   3    -0.231076992717E+04    0.23104E-02   -0.24848E-02  4669   0.198E-01    0.278E-01
RMM:   4    -0.231076917446E+04    0.75271E-03   -0.81075E-03  4584   0.617E-02    0.123E-01
RMM:   5    -0.231076908707E+04    0.87389E-04   -0.92732E-04  4685   0.410E-02    0.430E-02
RMM:   6    -0.231076906551E+04    0.21565E-04   -0.25444E-04  4260   0.980E-03    0.246E-02
RMM:   7    -0.231076905104E+04    0.14464E-04   -0.38678E-05  3000   0.819E-03    0.127E-02
RMM:   8    -0.231076904772E+04    0.33201E-05   -0.21915E-05  2879   0.408E-03
  28 F= -.23308592E+04 E0= -.23308592E+04  d E =-.335442E-01  mag=     2.0000
       N       E                     dE             d eps       ncg     rms          rms(c)
DAV:   1    -0.231077413881E+04   -0.50878E-02   -0.43461E+00  4400   0.184E+00    0.527E-01
RMM:   2    -0.231078849916E+04   -0.14360E-01   -0.16972E-01  5636   0.276E-01    0.285E-01
RMM:   3    -0.231078821923E+04    0.27993E-03   -0.12651E-02  4773   0.118E-01    0.174E-01
RMM:   4    -0.231078797829E+04    0.24094E-03   -0.32901E-03  4656   0.338E-02    0.774E-02
RMM:   5    -0.231078795918E+04    0.19104E-04   -0.34080E-04  4437   0.227E-02    0.245E-02
RMM:   6    -0.231078795378E+04    0.54013E-05   -0.54660E-05  3145   0.540E-03
  29 F= -.23308783E+04 E0= -.23308783E+04  d E =-.190632E-01  mag=     2.0000
       N       E                     dE             d eps       ncg     rms          rms(c)
DAV:   1    -0.231077525556E+04    0.12704E-01   -0.70433E+00  4376   0.234E+00    0.673E-01
RMM:   2    -0.231079866742E+04   -0.23412E-01   -0.27640E-01  5572   0.352E-01    0.365E-01
RMM:   3    -0.231079817897E+04    0.48845E-03   -0.20943E-02  4820   0.150E-01    0.224E-01
RMM:   4    -0.231079777819E+04    0.40079E-03   -0.53747E-03  4651   0.434E-02    0.102E-01
RMM:   5    -0.231079773878E+04    0.39403E-04   -0.57858E-04  4603   0.289E-02    0.321E-02
RMM:   6    -0.231079772887E+04    0.99160E-05   -0.10342E-04  3599   0.696E-03    0.185E-02
RMM:   7    -0.231079772025E+04    0.86165E-05   -0.24586E-05  2869   0.585E-03
  30 F= -.23308882E+04 E0= -.23308882E+04  d E =-.289934E-01  mag=     2.0000
       N       E                     dE             d eps       ncg     rms          rms(c)
DAV:   1    -0.231080437254E+04   -0.66437E-02   -0.35919E+00  4416   0.163E+00    0.453E-01
RMM:   2    -0.231081771462E+04   -0.13342E-01   -0.15599E-01  5736   0.246E-01    0.266E-01
RMM:   3    -0.231081783521E+04   -0.12058E-03   -0.12169E-02  4850   0.101E-01    0.165E-01
RMM:   4    -0.231081762756E+04    0.20765E-03   -0.28126E-03  4648   0.292E-02    0.761E-02
RMM:   5    -0.231081759384E+04    0.33724E-04   -0.31528E-04  4347   0.189E-02    0.226E-02
RMM:   6    -0.231081759500E+04   -0.11660E-05   -0.60301E-05  3001   0.536E-03
  31 F= -.23309081E+04 E0= -.23309081E+04  d E =-.199548E-01  mag=     2.0000
       N       E                     dE             d eps       ncg     rms          rms(c)
DAV:   1    -0.231079284078E+04    0.24753E-01   -0.11339E+01  4376   0.289E+00    0.808E-01
RMM:   2    -0.231083503872E+04   -0.42198E-01   -0.49269E-01  5713   0.438E-01    0.476E-01
RMM:   3    -0.231083567382E+04   -0.63510E-03   -0.41604E-02  4864   0.183E-01    0.301E-01
RMM:   4    -0.231083504537E+04    0.62845E-03   -0.86047E-03  4781   0.508E-02    0.150E-01
RMM:   5    -0.231083492350E+04    0.12187E-03   -0.12462E-03  4844   0.327E-02    0.448E-02
RMM:   6    -0.231083492678E+04   -0.32813E-05   -0.20251E-04  3849   0.983E-03    0.240E-02
RMM:   7    -0.231083491844E+04    0.83394E-05   -0.33428E-05  2892   0.680E-03
  32 F= -.23309256E+04 E0= -.23309256E+04  d E =-.373983E-01  mag=     2.0000
       N       E                     dE             d eps       ncg     rms          rms(c)
DAV:   1    -0.231083181086E+04    0.31159E-02   -0.68116E+00  4376   0.227E+00    0.672E-01
RMM:   2    -0.231086062615E+04   -0.28815E-01   -0.33012E-01  5708   0.351E-01    0.369E-01
RMM:   3    -0.231086145217E+04   -0.82603E-03   -0.29280E-02  4831   0.150E-01    0.230E-01
RMM:   4    -0.231086104471E+04    0.40746E-03   -0.55368E-03  4768   0.400E-02    0.117E-01
RMM:   5    -0.231086094608E+04    0.98634E-04   -0.76268E-04  4709   0.274E-02    0.344E-02
RMM:   6    -0.231086094538E+04    0.69206E-06   -0.14091E-04  3719   0.803E-03    0.187E-02
RMM:   7    -0.231086093705E+04    0.83305E-05   -0.24270E-05  2862   0.629E-03
  33 F= -.23309519E+04 E0= -.23309519E+04  d E =-.262775E-01  mag=     2.0000
       N       E                     dE             d eps       ncg     rms          rms(c)
DAV:   1    -0.231083647643E+04    0.24469E-01   -0.87625E+00  4376   0.257E+00    0.761E-01
RMM:   2    -0.231087352252E+04   -0.37046E-01   -0.42472E-01  5692   0.400E-01    0.417E-01
RMM:   3    -0.231087464205E+04   -0.11195E-02   -0.38385E-02  4843   0.174E-01    0.261E-01
RMM:   4    -0.231087411291E+04    0.52914E-03   -0.71444E-03  4809   0.453E-02    0.136E-01
RMM:   5    -0.231087396301E+04    0.14990E-03   -0.10217E-03  4810   0.311E-02    0.404E-02
RMM:   6    -0.231087396135E+04    0.16684E-05   -0.17947E-04  3900   0.929E-03    0.216E-02
RMM:   7    -0.231087394978E+04    0.11568E-04   -0.31803E-05  2929   0.719E-03    0.113E-02
RMM:   8    -0.231087394772E+04    0.20621E-05   -0.19099E-05  2858   0.358E-03
  34 F= -.23309651E+04 E0= -.23309651E+04  d E =-.395481E-01  mag=     2.0000
       N       E                     dE             d eps       ncg     rms          rms(c)
DAV:   1    -0.231085596641E+04    0.17983E-01   -0.73698E+00  4400   0.230E+00    0.678E-01
RMM:   2    -0.231089516249E+04   -0.39196E-01   -0.43899E-01  5968   0.367E-01    0.397E-01
RMM:   3    -0.231089724291E+04   -0.20804E-02   -0.40334E-02  5080   0.145E-01    0.250E-01
RMM:   4    -0.231089683949E+04    0.40342E-03   -0.70690E-03  4850   0.387E-02    0.134E-01
RMM:   5    -0.231089670587E+04    0.13362E-03   -0.94567E-04  4753   0.252E-02    0.384E-02
RMM:   6    -0.231089671076E+04   -0.48892E-05   -0.12417E-04  3600   0.860E-03    0.198E-02
RMM:   7    -0.231089670413E+04    0.66372E-05   -0.22223E-05  2854   0.582E-03
  35 F= -.23309885E+04 E0= -.23309885E+04  d E =-.233402E-01  mag=     2.0000
       N       E                     dE             d eps       ncg     rms          rms(c)
DAV:   1    -0.231081103974E+04    0.85671E-01   -0.18153E+01  4376   0.361E+00    0.107E+00
RMM:   2    -0.231090872538E+04   -0.97686E-01   -0.10927E+00  5891   0.578E-01    0.624E-01
RMM:   3    -0.231091398179E+04   -0.52564E-02   -0.10101E-01  5036   0.238E-01    0.401E-01
RMM:   4    -0.231091301076E+04    0.97103E-03   -0.17308E-02  4965   0.606E-02    0.222E-01
RMM:   5    -0.231091257833E+04    0.43242E-03   -0.26173E-03  4986   0.394E-02    0.670E-02
RMM:   6    -0.231091260016E+04   -0.21826E-04   -0.35321E-04  4184   0.142E-02    0.340E-02
RMM:   7    -0.231091258324E+04    0.16925E-04   -0.57741E-05  3184   0.861E-03    0.180E-02
RMM:   8    -0.231091257873E+04    0.45012E-05   -0.28438E-05  2896   0.416E-03
  36 F= -.23310052E+04 E0= -.23310052E+04  d E =-.400970E-01  mag=     2.0000
       N       E                     dE             d eps       ncg     rms          rms(c)
DAV:   1    -0.231085738426E+04    0.55199E-01   -0.10626E+01  4376   0.279E+00    0.899E-01
RMM:   2    -0.231093119521E+04   -0.73811E-01   -0.80680E-01  5937   0.468E-01    0.505E-01
RMM:   3    -0.231093596511E+04   -0.47699E-02   -0.77178E-02  5066   0.194E-01    0.322E-01
RMM:   4    -0.231093541281E+04    0.55230E-03   -0.12672E-02  4909   0.483E-02    0.185E-01
RMM:   5    -0.231093501946E+04    0.39335E-03   -0.18432E-03  5052   0.328E-02    0.555E-02
RMM:   6    -0.231093503523E+04   -0.15771E-04   -0.24639E-04  4189   0.125E-02    0.277E-02
RMM:   7    -0.231093502423E+04    0.11001E-04   -0.38799E-05  3053   0.750E-03    0.149E-02
RMM:   8    -0.231093502045E+04    0.37817E-05   -0.20282E-05  2849   0.365E-03
  37 F= -.23310282E+04 E0= -.23310282E+04  d E =-.230134E-01  mag=     2.0000
       N       E                     dE             d eps       ncg     rms          rms(c)
DAV:   1    -0.231088430680E+04    0.50717E-01   -0.78314E+00  4376   0.240E+00    0.771E-01
RMM:   2    -0.231093853268E+04   -0.54226E-01   -0.59252E-01  5921   0.401E-01    0.433E-01
RMM:   3    -0.231094199238E+04   -0.34597E-02   -0.56377E-02  5048   0.168E-01    0.275E-01
RMM:   4    -0.231094156524E+04    0.42714E-03   -0.93525E-03  4871   0.417E-02    0.157E-01
RMM:   5    -0.231094128083E+04    0.28441E-03   -0.13491E-03  4968   0.286E-02    0.468E-02
RMM:   6    -0.231094128983E+04   -0.89968E-05   -0.17571E-04  3997   0.108E-02    0.238E-02
RMM:   7    -0.231094128234E+04    0.74838E-05   -0.29767E-05  2935   0.695E-03
  38 F= -.23310350E+04 E0= -.23310350E+04  d E =-.297485E-01  mag=     2.0000
       N       E                     dE             d eps       ncg     rms          rms(c)
DAV:   1    -0.231089079683E+04    0.50493E-01   -0.77068E+00  4376   0.233E+00    0.776E-01
RMM:   2    -0.231095704372E+04   -0.66247E-01   -0.70932E-01  6009   0.400E-01    0.451E-01
RMM:   3    -0.231096190290E+04   -0.48592E-02   -0.67493E-02  5132   0.172E-01    0.290E-01
RMM:   4    -0.231096155579E+04    0.34711E-03   -0.10890E-02  4948   0.398E-02    0.174E-01
RMM:   5    -0.231096120224E+04    0.35355E-03   -0.16407E-03  5008   0.269E-02    0.538E-02
RMM:   6    -0.231096122300E+04   -0.20758E-04   -0.20110E-04  3969   0.115E-02    0.253E-02
RMM:   7    -0.231096121771E+04    0.52893E-05   -0.30608E-05  2897   0.580E-03
  39 F= -.23310552E+04 E0= -.23310552E+04  d E =-.201992E-01  mag=     2.0000
       N       E                     dE             d eps       ncg     rms          rms(c)
DAV:   1    -0.231084012536E+04    0.12110E+00   -0.14443E+01  4368   0.319E+00    0.106E+00
RMM:   2    -0.231096756760E+04   -0.12744E+00   -0.13619E+00  6057   0.554E-01    0.617E-01
RMM:   3    -0.231097704966E+04   -0.94821E-02   -0.12924E-01  5200   0.230E-01    0.404E-01
RMM:   4    -0.231097643623E+04    0.61343E-03   -0.20982E-02  5103   0.545E-02    0.248E-01
RMM:   5    -0.231097564495E+04    0.79128E-03   -0.32671E-03  5121   0.361E-02    0.815E-02
RMM:   6    -0.231097568497E+04   -0.40014E-04   -0.40555E-04  4450   0.165E-02    0.384E-02
RMM:   7    -0.231097567287E+04    0.12095E-04   -0.64058E-05  3137   0.751E-03    0.207E-02
RMM:   8    -0.231097566985E+04    0.30241E-05   -0.28301E-05  2879   0.407E-03
  40 F= -.23310699E+04 E0= -.23310699E+04  d E =-.349498E-01  mag=     2.0000
       N       E                     dE             d eps       ncg     rms          rms(c)
DAV:   1    -0.231094821161E+04    0.27461E-01   -0.32077E+00  4432   0.150E+00    0.500E-01
RMM:   2    -0.231097626616E+04   -0.28055E-01   -0.29903E-01  6001   0.259E-01    0.292E-01
RMM:   3    -0.231097786210E+04   -0.15959E-02   -0.23574E-02  5087   0.108E-01    0.189E-01
RMM:   4    -0.231097762378E+04    0.23832E-03   -0.37973E-03  4872   0.255E-02    0.114E-01
RMM:   5    -0.231097747059E+04    0.15319E-03   -0.70997E-04  4761   0.177E-02    0.358E-02
RMM:   6    -0.231097747702E+04   -0.64364E-05   -0.83951E-05  3260   0.844E-03
  41 F= -.23310718E+04 E0= -.23310718E+04  d E =-.368687E-01  mag=     2.0000
       N       E                     dE             d eps       ncg     rms          rms(c)
DAV:   1    -0.231087535601E+04    0.10211E+00   -0.11544E+01  4376   0.276E+00    0.989E-01
RMM:   2    -0.231099389537E+04   -0.11854E+00   -0.12520E+00  6140   0.500E-01    0.580E-01
RMM:   3    -0.231100297483E+04   -0.90795E-02   -0.11732E-01  5301   0.203E-01    0.376E-01
RMM:   4    -0.231100241448E+04    0.56035E-03   -0.18752E-02  5096   0.480E-02    0.232E-01
RMM:   5    -0.231100171726E+04    0.69722E-03   -0.28532E-03  5177   0.313E-02    0.769E-02
RMM:   6    -0.231100175646E+04   -0.39199E-04   -0.34915E-04  4404   0.152E-02    0.390E-02
RMM:   7    -0.231100174351E+04    0.12950E-04   -0.56285E-05  2979   0.632E-03    0.217E-02
RMM:   8    -0.231100173931E+04    0.41986E-05   -0.26722E-05  2874   0.382E-03
  42 F= -.23310963E+04 E0= -.23310963E+04  d E =-.244999E-01  mag=     2.0000
       N       E                     dE             d eps       ncg     rms          rms(c)
DAV:   1    -0.231081941878E+04    0.18232E+00   -0.17737E+01  4376   0.342E+00    0.123E+00
RMM:   2    -0.231100267586E+04   -0.18326E+00   -0.19320E+00  6177   0.624E-01    0.721E-01
RMM:   3    -0.231101598714E+04   -0.13311E-01   -0.17398E-01  5359   0.244E-01    0.474E-01
RMM:   4    -0.231101495885E+04    0.10283E-02   -0.28363E-02  5211   0.593E-02    0.294E-01
RMM:   5    -0.231101376349E+04    0.11954E-02   -0.44536E-03  5227   0.387E-02    0.104E-01
RMM:   6    -0.231101383953E+04   -0.76035E-04   -0.57636E-04  4632   0.195E-02    0.571E-02
RMM:   7    -0.231101381710E+04    0.22432E-04   -0.10583E-04  3252   0.787E-03    0.337E-02
RMM:   8    -0.231101380941E+04    0.76812E-05   -0.51473E-05  2935   0.503E-03
  43 F= -.23311085E+04 E0= -.23311085E+04  d E =-.366444E-01  mag=     2.0000
       N       E                     dE             d eps       ncg     rms          rms(c)
DAV:   1    -0.231086466328E+04    0.14915E+00   -0.14167E+01  4376   0.301E+00    0.115E+00
RMM:   2    -0.231103192876E+04   -0.16727E+00   -0.17393E+00  6190   0.561E-01    0.671E-01
RMM:   3    -0.231104405608E+04   -0.12127E-01   -0.15383E-01  5397   0.223E-01    0.432E-01
RMM:   4    -0.231104317791E+04    0.87817E-03   -0.24968E-02  5147   0.540E-02    0.270E-01
RMM:   5    -0.231104223573E+04    0.94218E-03   -0.39628E-03  5306   0.355E-02    0.969E-02
RMM:   6    -0.231104229269E+04   -0.56964E-04   -0.49726E-04  4555   0.168E-02    0.598E-02
RMM:   7    -0.231104226889E+04    0.23802E-04   -0.10356E-04  3153   0.756E-03    0.402E-02
RMM:   8    -0.231104225567E+04    0.13225E-04   -0.64393E-05  2972   0.501E-03    0.197E-02
RMM:   9    -0.231104226263E+04   -0.69658E-05   -0.96828E-06  2813   0.359E-03
  44 F= -.23311368E+04 E0= -.23311368E+04  d E =-.283344E-01  mag=     2.0000
       N       E                     dE             d eps       ncg     rms          rms(c)
DAV:   1    -0.231082860337E+04    0.21365E+00   -0.18201E+01  4376   0.341E+00    0.130E+00
RMM:   2    -0.231104357403E+04   -0.21497E+00   -0.22289E+00  6192   0.639E-01    0.765E-01
RMM:   3    -0.231105909927E+04   -0.15525E-01   -0.19656E-01  5425   0.253E-01    0.507E-01
RMM:   4    -0.231105782864E+04    0.12706E-02   -0.31878E-02  5322   0.607E-02    0.323E-01
RMM:   5    -0.231105641449E+04    0.14141E-02   -0.54443E-03  5272   0.399E-02    0.122E-01
RMM:   6    -0.231105651254E+04   -0.98047E-04   -0.71003E-04  4715   0.209E-02    0.761E-02
RMM:   7    -0.231105649534E+04    0.17192E-04   -0.14404E-04  3379   0.833E-03    0.616E-02
RMM:   8    -0.231105646205E+04    0.33289E-04   -0.10662E-04  3015   0.594E-03    0.385E-02
RMM:   9    -0.231105645841E+04    0.36486E-05   -0.41313E-05  2881   0.447E-03
  45 F= -.23311503E+04 E0= -.23311503E+04  d E =-.418198E-01  mag=     2.0000
       N       E                     dE             d eps       ncg     rms          rms(c)
DAV:   1    -0.231088710432E+04    0.16936E+00   -0.13954E+01  4376   0.293E+00    0.120E+00
RMM:   2    -0.231107577157E+04   -0.18867E+00   -0.19345E+00  6219   0.571E-01    0.717E-01
RMM:   3    -0.231108981131E+04   -0.14040E-01   -0.16697E-01  5448   0.222E-01    0.490E-01
RMM:   4    -0.231108881112E+04    0.10002E-02   -0.27151E-02  5307   0.542E-02    0.338E-01
RMM:   5    -0.231108748964E+04    0.13215E-02   -0.51655E-03  5266   0.365E-02    0.160E-01
RMM:   6    -0.231108752858E+04   -0.38947E-04   -0.98943E-04  4671   0.210E-02    0.885E-02
RMM:   7    -0.231108757667E+04   -0.48086E-04   -0.17337E-04  3331   0.830E-03    0.837E-02
RMM:   8    -0.231108756468E+04    0.11985E-04   -0.89513E-05  2919   0.554E-03    0.712E-02
RMM:   9    -0.231108752371E+04    0.40973E-04   -0.20112E-04  3272   0.632E-03    0.302E-02
RMM:  10    -0.231108752218E+04    0.15330E-05   -0.46020E-05  2862   0.481E-03
  46 F= -.23311804E+04 E0= -.23311804E+04  d E =-.300778E-01  mag=     2.0000
       N       E                     dE             d eps       ncg     rms          rms(c)
DAV:   1    -0.231054147027E+04    0.54605E+00   -0.39623E+01  4376   0.496E+00    0.204E+00
RMM:   2    -0.231109723791E+04   -0.55577E+00   -0.56360E+00  6336   0.100E+00    0.135E+00
RMM:   3    -0.231112996131E+04   -0.32723E-01   -0.45066E-01  5698   0.336E-01    0.113E+00
RMM:   4    -0.231113001399E+04   -0.52686E-04   -0.74664E-02  5740   0.804E-02    0.883E-01
RMM:   5    -0.231112437593E+04    0.56381E-02   -0.24307E-02  4975   0.625E-02    0.629E-01
RMM:   6    -0.231112190006E+04    0.24759E-02   -0.14751E-02  4923   0.620E-02    0.344E-01
RMM:   7    -0.231112300737E+04   -0.11073E-02   -0.23260E-03  5269   0.266E-02    0.322E-01
RMM:   8    -0.231112292932E+04    0.78049E-04   -0.13598E-03  4209   0.162E-02    0.245E-01
RMM:   9    -0.231112243239E+04    0.49693E-03   -0.28943E-03  4474   0.219E-02    0.961E-02
RMM:  10    -0.231112245694E+04   -0.24545E-04   -0.27306E-04  3569   0.109E-02    0.106E-01
RMM:  11    -0.231112246963E+04   -0.12691E-04   -0.18572E-04  3180   0.651E-03    0.618E-02
RMM:  12    -0.231112247694E+04   -0.73155E-05   -0.11189E-04  2959   0.569E-03    0.327E-02
RMM:  13    -0.231112249033E+04   -0.13387E-04   -0.11693E-04  3065   0.557E-03    0.132E-02
RMM:  14    -0.231112249370E+04   -0.33672E-05   -0.31001E-05  2820   0.427E-03
  47 F= -.23312123E+04 E0= -.23312123E+04  d E =-.619638E-01  mag=     2.0000
       N       E                     dE             d eps       ncg     rms          rms(c)
DAV:   1    -0.230861778704E+04    0.25047E+01   -0.15789E+02  4360   0.997E+00    0.447E+00
RMM:   2    -0.231147091134E+04   -0.28531E+01   -0.24200E+01  6447   0.228E+00    0.623E+00
RMM:   3    -0.231118003097E+04    0.29088E+00   -0.20146E+00  6057   0.626E-01    0.320E+00
RMM:   4    -0.231117128232E+04    0.87486E-02   -0.28098E-01  5983   0.158E-01    0.301E+00
RMM:   5    -0.231116658746E+04    0.46949E-02   -0.34996E-02  5140   0.738E-02    0.260E+00
RMM:   6    -0.231111908735E+04    0.47500E-01   -0.17368E-01  4900   0.159E-01    0.117E+00
RMM:   7    -0.231112129273E+04   -0.22054E-02   -0.25890E-02  5140   0.954E-02    0.123E+00
RMM:   8    -0.231112436381E+04   -0.30711E-02   -0.13149E-02  4775   0.478E-02    0.120E+00
RMM:   9    -0.231112671550E+04   -0.23517E-02   -0.99016E-03  4639   0.467E-02    0.111E+00
RMM:  10    -0.231112871989E+04   -0.20044E-02   -0.81027E-03  4736   0.377E-02    0.114E+00
RMM:  11    -0.231112683403E+04    0.18859E-02   -0.14919E-03  4210   0.212E-02    0.108E+00
RMM:  12    -0.231112510697E+04    0.17271E-02   -0.10205E-02  4535   0.424E-02    0.967E-01
RMM:  13    -0.231112385445E+04    0.12525E-02   -0.28311E-03  4165   0.279E-02    0.923E-01
RMM:  14    -0.231110677459E+04    0.17080E-01   -0.85087E-02  4615   0.122E-01    0.144E+00
RMM:  15    -0.231111530019E+04   -0.85256E-02   -0.12949E-02  4657   0.618E-02    0.103E+00
RMM:  16    -0.231111878880E+04   -0.34886E-02   -0.11802E-02  4402   0.449E-02    0.782E-01
RMM:  17    -0.231112452914E+04   -0.57403E-02   -0.17466E-02  4616   0.587E-02    0.616E-01
RMM:  18    -0.231112716159E+04   -0.26324E-02   -0.58204E-03  4629   0.342E-02    0.687E-01
RMM:  19    -0.231113316453E+04   -0.60029E-02   -0.10540E-02  4629   0.404E-02    0.858E-01
RMM:  20    -0.231112265887E+04    0.10506E-01   -0.29011E-02  4602   0.730E-02    0.846E-01
RMM:  21    -0.231111532054E+04    0.73383E-02   -0.18357E-02  4673   0.627E-02    0.114E+00
RMM:  22    -0.231112906903E+04   -0.13748E-01   -0.35216E-02  4556   0.818E-02    0.882E-01
RMM:  23    -0.231114513258E+04   -0.16064E-01   -0.12977E-01  4734   0.158E-01    0.148E+00
RMM:  24    -0.231111721797E+04    0.27915E-01   -0.80308E-02  4775   0.161E-01    0.187E+00
RMM:  25    -0.231111775749E+04   -0.53951E-03   -0.10488E-02  4981   0.475E-02    0.188E+00
RMM:  26    -0.231111356792E+04    0.41896E-02   -0.95061E-04  3907   0.140E-02    0.187E+00
RMM:  27    -0.231109877241E+04    0.14796E-01   -0.30931E-03  3812   0.315E-02    0.192E+00
RMM:  28    -0.231109993444E+04   -0.11620E-02   -0.13788E-04  3163   0.999E-03    0.192E+00
RMM:  29    -0.231110296681E+04   -0.30324E-02   -0.14424E-04  3032   0.731E-03    0.190E+00
RMM:  30    -0.231108830444E+04    0.14662E-01   -0.24788E-03  3814   0.274E-02    0.199E+00
RMM:  31    -0.231111645961E+04   -0.28155E-01   -0.98949E-03  4080   0.510E-02    0.182E+00
RMM:  32    -0.231113942598E+04   -0.22966E-01   -0.13393E-02  4408   0.723E-02    0.160E+00
RMM:  33    -0.231114437425E+04   -0.49483E-02   -0.31197E-03  4247   0.416E-02    0.153E+00
RMM:  34    -0.231114742036E+04   -0.30461E-02   -0.22729E-03  4365   0.272E-02    0.141E+00
RMM:  35    -0.231114886522E+04   -0.14449E-02   -0.12099E-03  4400   0.201E-02    0.133E+00
RMM:  36    -0.231114872757E+04    0.13765E-03   -0.12948E-04  3045   0.570E-03    0.134E+00
RMM:  37    -0.231114867232E+04    0.55254E-04   -0.13984E-05  2741   0.341E-03    0.135E+00
RMM:  38    -0.231114807370E+04    0.59862E-03   -0.62293E-04  4422   0.133E-02    0.142E+00
RMM:  39    -0.231114777270E+04    0.30100E-03   -0.11566E-03  4530   0.166E-02    0.136E+00
RMM:  40    -0.231114616466E+04    0.16080E-02   -0.18835E-03  4208   0.190E-02    0.128E+00
RMM:  41    -0.231114653477E+04   -0.37011E-03   -0.23466E-03  4412   0.240E-02    0.983E-01
RMM:  42    -0.231114973618E+04   -0.32014E-02   -0.72504E-03  4735   0.389E-02    0.576E-01
RMM:  43    -0.231115062398E+04   -0.88780E-03   -0.46125E-03  4704   0.317E-02    0.413E-01
RMM:  44    -0.231114914865E+04    0.14753E-02   -0.47064E-03  4480   0.278E-02    0.440E-01
RMM:  45    -0.231114911711E+04    0.31540E-04   -0.38197E-04  3207   0.119E-02    0.437E-01
RMM:  46    -0.231114850882E+04    0.60829E-03   -0.16863E-04  3020   0.577E-03    0.463E-01
RMM:  47    -0.231114800505E+04    0.50377E-03   -0.20842E-04  3365   0.689E-03    0.510E-01
RMM:  48    -0.231114726944E+04    0.73561E-03   -0.16740E-04  3096   0.678E-03    0.546E-01
RMM:  49    -0.231114667751E+04    0.59192E-03   -0.13342E-04  2981   0.613E-03    0.575E-01
RMM:  50    -0.231114671513E+04   -0.37618E-04   -0.11407E-04  2948   0.557E-03    0.528E-01
RMM:  51    -0.231114719419E+04   -0.47906E-03   -0.17089E-04  3016   0.632E-03    0.540E-01
RMM:  52    -0.231114742380E+04   -0.22961E-03   -0.28006E-04  3669   0.825E-03    0.551E-01
RMM:  53    -0.231114803083E+04   -0.60702E-03   -0.20707E-04  3173   0.867E-03    0.521E-01
RMM:  54    -0.231114492507E+04    0.31058E-02   -0.48482E-03  4542   0.312E-02    0.599E-01
RMM:  55    -0.231114695091E+04   -0.20258E-02   -0.13968E-03  4051   0.196E-02    0.479E-01
RMM:  56    -0.231114979241E+04   -0.28415E-02   -0.25991E-03  4216   0.213E-02    0.350E-01
RMM:  57    -0.231115012866E+04   -0.33625E-03   -0.11814E-03  4039   0.182E-02    0.305E-01
RMM:  58    -0.231114971592E+04    0.41275E-03   -0.34791E-04  3521   0.827E-03    0.269E-01
RMM:  59    -0.231114955239E+04    0.16353E-03   -0.17860E-04  3313   0.781E-03    0.229E-01
RMM:  60    -0.231114953291E+04    0.19478E-04   -0.51964E-04  3863   0.111E-02    0.204E-01
RMM:  61    -0.231114959007E+04   -0.57162E-04   -0.18784E-04  3020   0.815E-03    0.199E-01
RMM:  62    -0.231114967755E+04   -0.87480E-04   -0.23728E-04  3300   0.698E-03    0.131E-01
RMM:  63    -0.231114963664E+04    0.40914E-04   -0.32532E-04  3630   0.871E-03    0.784E-02
RMM:  64    -0.231114970251E+04   -0.65871E-04   -0.32370E-04  3613   0.877E-03    0.323E-02
RMM:  65    -0.231114971545E+04   -0.12938E-04   -0.12568E-04  2985   0.667E-03    0.356E-02
RMM:  66    -0.231114970627E+04    0.91815E-05   -0.85075E-05  2791   0.482E-03
  48 F= -.23312307E+04 E0= -.23312307E+04  d E =-.803673E-01  mag=     2.0000
       N       E                     dE             d eps       ncg     rms          rms(c)
DAV:   1    -0.231114284480E+04    0.68706E-02   -0.92098E-01  4448   0.745E-01    0.299E-01
RMM:   2    -0.231115578967E+04   -0.12945E-01   -0.13028E-01  6282   0.149E-01    0.192E-01
RMM:   3    -0.231115695266E+04   -0.11630E-02   -0.13217E-02  5235   0.645E-02    0.139E-01
RMM:   4    -0.231115690907E+04    0.43580E-04   -0.19831E-03  3892   0.138E-02    0.104E-01
RMM:   5    -0.231115681061E+04    0.98466E-04   -0.39721E-04  4389   0.105E-02    0.535E-02
RMM:   6    -0.231115681150E+04   -0.88790E-06   -0.91201E-05  2981   0.683E-03
  49 F= -.23312371E+04 E0= -.23312371E+04  d E =-.641980E-02  mag=     2.0000
       N       E                     dE             d eps       ncg     rms          rms(c)
DAV:   1    -0.231105248508E+04    0.10433E+00   -0.82707E+00  4376   0.224E+00    0.910E-01
RMM:   2    -0.231116889453E+04   -0.11641E+00   -0.11741E+00  6310   0.456E-01    0.615E-01
RMM:   3    -0.231118052570E+04   -0.11631E-01   -0.13793E-01  5633   0.188E-01    0.476E-01
RMM:   4    -0.231117992200E+04    0.60370E-03   -0.19567E-02  5606   0.408E-02    0.341E-01
RMM:   5    -0.231117862694E+04    0.12951E-02   -0.36079E-03  5281   0.270E-02    0.159E-01
RMM:   6    -0.231117868474E+04   -0.57803E-04   -0.69587E-04  4283   0.188E-02    0.123E-01
RMM:   7    -0.231117868413E+04    0.61060E-06   -0.22215E-04  3401   0.797E-03    0.937E-02
RMM:   8    -0.231117863236E+04    0.51776E-04   -0.20302E-04  3077   0.680E-03    0.440E-02
RMM:   9    -0.231117863482E+04   -0.24605E-05   -0.53118E-05  2861   0.465E-03
  50 F= -.23312570E+04 E0= -.23312570E+04  d E =-.263447E-01  mag=     2.0000
       N       E                     dE             d eps       ncg     rms          rms(c)
DAV:   1    -0.231071515462E+04    0.46348E+00   -0.32962E+01  4368   0.446E+00    0.183E+00
RMM:   2    -0.231119498550E+04   -0.47983E+00   -0.48872E+00  6396   0.962E-01    0.122E+00
RMM:   3    -0.231123136176E+04   -0.36376E-01   -0.49299E-01  5850   0.319E-01    0.103E+00
RMM:   4    -0.231122870808E+04    0.26537E-02   -0.74951E-02  6052   0.762E-02    0.755E-01
RMM:   5    -0.231122438452E+04    0.43236E-02   -0.13031E-02  5091   0.467E-02    0.468E-01
RMM:   6    -0.231122299442E+04    0.13901E-02   -0.69444E-03  4939   0.465E-02    0.202E-01
RMM:   7    -0.231122350916E+04   -0.51474E-03   -0.17114E-03  4902   0.205E-02    0.190E-01
RMM:   8    -0.231122321681E+04    0.29235E-03   -0.54296E-04  3812   0.126E-02    0.115E-01
RMM:   9    -0.231122314752E+04    0.69290E-04   -0.63577E-04  3827   0.108E-02    0.752E-02
RMM:  10    -0.231122317494E+04   -0.27411E-04   -0.10041E-04  2974   0.620E-03    0.424E-02
RMM:  11    -0.231122318717E+04   -0.12239E-04   -0.36896E-05  2823   0.395E-03    0.379E-02
RMM:  12    -0.231122319120E+04   -0.40304E-05   -0.10547E-05  2804   0.257E-03
  51 F= -.23312985E+04 E0= -.23312985E+04  d E =-.678388E-01  mag=     2.0000
       N       E                     dE             d eps       ncg     rms          rms(c)
DAV:   1    -0.230921789690E+04    0.20053E+01   -0.13190E+02  4360   0.894E+00    0.359E+00
RMM:   2    -0.231128275208E+04   -0.20649E+01   -0.20827E+01  6473   0.216E+00    0.558E+00
RMM:   3    -0.231130646272E+04   -0.23711E-01   -0.20335E+00  6094   0.591E-01    0.309E+00
RMM:   4    -0.231131380641E+04   -0.73437E-02   -0.26656E-01  6065   0.154E-01    0.174E+00
RMM:   5    -0.231129325985E+04    0.20547E-01   -0.56927E-02  5044   0.934E-02    0.110E+00
RMM:   6    -0.231128042195E+04    0.12838E-01   -0.46109E-02  5269   0.961E-02    0.475E-01
RMM:   7    -0.231127999005E+04    0.43190E-03   -0.84161E-03  5511   0.472E-02    0.332E-01
RMM:   8    -0.231127974028E+04    0.24977E-03   -0.21869E-03  5133   0.240E-02    0.222E-01
RMM:   9    -0.231127964413E+04    0.96152E-04   -0.10535E-03  4444   0.191E-02    0.102E-01
RMM:  10    -0.231127964370E+04    0.43101E-06   -0.25905E-04  3836   0.103E-02    0.517E-02
RMM:  11    -0.231127965108E+04   -0.73790E-05   -0.78671E-05  3077   0.628E-03
  52 F= -.23313511E+04 E0= -.23313511E+04  d E =-.120401E+00  mag=     2.0000
       N       E                     dE             d eps       ncg     rms          rms(c)
DAV:   1    -0.231104784004E+04    0.23180E+00   -0.19908E+01  4376   0.339E+00    0.132E+00
RMM:   2    -0.231134385101E+04   -0.29601E+00   -0.30705E+00  6429   0.771E-01    0.788E-01
RMM:   3    -0.231136692222E+04   -0.23071E-01   -0.33289E-01  5906   0.250E-01    0.713E-01
RMM:   4    -0.231136591337E+04    0.10088E-02   -0.44035E-02  6062   0.530E-02    0.527E-01
RMM:   5    -0.231136298407E+04    0.29293E-02   -0.53612E-03  4993   0.295E-02    0.357E-01
RMM:   6    -0.231136110661E+04    0.18775E-02   -0.85039E-03  5184   0.410E-02    0.197E-01
RMM:   7    -0.231136184355E+04   -0.73694E-03   -0.16745E-03  4726   0.182E-02    0.237E-01
RMM:   8    -0.231136152200E+04    0.32155E-03   -0.53611E-04  3844   0.105E-02    0.124E-01
RMM:   9    -0.231136140921E+04    0.11279E-03   -0.40502E-04  3571   0.944E-03    0.429E-02
RMM:  10    -0.231136141177E+04   -0.25596E-05   -0.12579E-04  2885   0.540E-03    0.217E-02
RMM:  11    -0.231136141373E+04   -0.19589E-05   -0.22560E-05  2825   0.356E-03
  53 F= -.23314317E+04 E0= -.23314317E+04  d E =-.806678E-01  mag=     2.0000
       N       E                     dE             d eps       ncg     rms          rms(c)
DAV:   1    -0.230967525191E+04    0.16862E+01   -0.10603E+02  4360   0.788E+00    0.324E+00
RMM:   2    -0.231138721468E+04   -0.17120E+01   -0.17852E+01  6499   0.201E+00    0.200E+00
RMM:   3    -0.231147055887E+04   -0.83344E-01   -0.15348E+00  5960   0.536E-01    0.192E+00
RMM:   4    -0.231147631090E+04   -0.57520E-02   -0.22039E-01  6235   0.123E-01    0.150E+00
RMM:   5    -0.231147572681E+04    0.58409E-03   -0.23510E-02  5118   0.520E-02    0.137E+00
RMM:   6    -0.231146048058E+04    0.15246E-01   -0.36961E-02  4948   0.755E-02    0.801E-01
RMM:   7    -0.231145466676E+04    0.58138E-02   -0.56905E-02  5515   0.962E-02    0.648E-01
RMM:   8    -0.231145631301E+04   -0.16462E-02   -0.99132E-03  5497   0.397E-02    0.496E-01
RMM:   9    -0.231145467585E+04    0.16372E-02   -0.32791E-03  4916   0.257E-02    0.221E-01
RMM:  10    -0.231145471840E+04   -0.42557E-04   -0.17362E-03  4341   0.179E-02    0.108E-01
RMM:  11    -0.231145476818E+04   -0.49771E-04   -0.43315E-04  3612   0.102E-02    0.820E-02
RMM:  12    -0.231145483496E+04   -0.66781E-04   -0.24115E-04  3502   0.763E-03    0.585E-02
RMM:  13    -0.231145487110E+04   -0.36140E-04   -0.96860E-05  2952   0.627E-03    0.515E-02
RMM:  14    -0.231145490376E+04   -0.32668E-04   -0.14218E-04  3087   0.595E-03    0.363E-02
RMM:  15    -0.231145492437E+04   -0.20610E-04   -0.11170E-04  2958   0.603E-03    0.119E-02
RMM:  16    -0.231145493095E+04   -0.65792E-05   -0.38159E-05  2781   0.397E-03
  54 F= -.23315237E+04 E0= -.23315237E+04  d E =-.172614E+00  mag=     2.0000
       N       E                     dE             d eps       ncg     rms          rms(c)
DAV:   1    -0.231153153667E+04   -0.76612E-01   -0.89006E-01  4592   0.984E-01    0.367E-01
RMM:   2    -0.231153847187E+04   -0.69352E-02   -0.76703E-02  5862   0.184E-01    0.178E-01
RMM:   3    -0.231153850251E+04   -0.30640E-04   -0.64438E-03  5144   0.673E-02    0.121E-01
RMM:   4    -0.231153836346E+04    0.13904E-03   -0.15487E-03  4771   0.238E-02    0.724E-02
RMM:   5    -0.231153836051E+04    0.29581E-05   -0.20233E-04  4360   0.162E-02    0.550E-02
RMM:   6    -0.231153837059E+04   -0.10087E-04   -0.47832E-05  2850   0.466E-03    0.493E-02
RMM:   7    -0.231153835197E+04    0.18622E-04   -0.60278E-05  2853   0.440E-03    0.275E-02
RMM:   8    -0.231153835905E+04   -0.70765E-05   -0.31106E-05  2820   0.369E-03
  55 F= -.23316070E+04 E0= -.23316070E+04  d E =-.833162E-01  mag=     2.0000
       N       E                     dE             d eps       ncg     rms          rms(c)
DAV:   1    -0.231165196135E+04   -0.11361E+00   -0.80263E+00  4400   0.295E+00    0.110E+00
RMM:   2    -0.231171423795E+04   -0.62277E-01   -0.68823E-01  5827   0.549E-01    0.564E-01
RMM:   3    -0.231171440215E+04   -0.16421E-03   -0.60622E-02  5172   0.211E-01    0.381E-01
RMM:   4    -0.231171306145E+04    0.13407E-02   -0.12165E-02  4763   0.684E-02    0.227E-01
RMM:   5    -0.231171326016E+04   -0.19871E-03   -0.16697E-03  4815   0.474E-02    0.201E-01
RMM:   6    -0.231171329070E+04   -0.30536E-04   -0.48914E-04  4410   0.127E-02    0.171E-01
RMM:   7    -0.231171303234E+04    0.25836E-03   -0.10774E-03  4201   0.160E-02    0.100E-01
RMM:   8    -0.231171312526E+04   -0.92926E-04   -0.23453E-04  4140   0.986E-03    0.107E-01
RMM:   9    -0.231171312711E+04   -0.18496E-05   -0.14502E-04  3283   0.782E-03    0.681E-02
RMM:  10    -0.231171313774E+04   -0.10628E-04   -0.10272E-04  3070   0.663E-03    0.313E-02
RMM:  11    -0.231171315681E+04   -0.19067E-04   -0.69383E-05  2898   0.539E-03    0.152E-02
RMM:  12    -0.231171316736E+04   -0.10547E-04   -0.25494E-05  2814   0.422E-03    0.112E-02
RMM:  13    -0.231171317398E+04   -0.66285E-05   -0.17617E-05  2807   0.326E-03
  56 F= -.23317815E+04 E0= -.23317815E+04  d E =-.257844E+00  mag=     2.0000
       N       E                     dE             d eps       ncg     rms          rms(c)
DAV:   1    -0.231146497367E+04    0.24819E+00   -0.32250E+01  4376   0.591E+00    0.221E+00
RMM:   2    -0.231171049399E+04   -0.24552E+00   -0.27307E+00  5856   0.109E+00    0.115E+00
RMM:   3    -0.231171223519E+04   -0.17412E-02   -0.26837E-01  5111   0.439E-01    0.748E-01
RMM:   4    -0.231170769136E+04    0.45438E-02   -0.43938E-02  4978   0.127E-01    0.449E-01
RMM:   5    -0.231170790837E+04   -0.21701E-03   -0.79733E-03  5014   0.854E-02    0.438E-01
RMM:   6    -0.231170763914E+04    0.26923E-03   -0.19403E-03  4935   0.264E-02    0.366E-01
RMM:   7    -0.231170605858E+04    0.15806E-02   -0.54971E-03  4794   0.332E-02    0.192E-01
RMM:   8    -0.231170636018E+04   -0.30160E-03   -0.12778E-03  5005   0.240E-02    0.154E-01
RMM:   9    -0.231170627664E+04    0.83537E-04   -0.45836E-04  4374   0.151E-02    0.613E-02
RMM:  10    -0.231170627830E+04   -0.16580E-05   -0.13883E-04  3657   0.724E-03    0.293E-02
RMM:  11    -0.231170629857E+04   -0.20270E-04   -0.51655E-05  2965   0.582E-03    0.190E-02
RMM:  12    -0.231170632035E+04   -0.21781E-04   -0.32057E-05  2891   0.448E-03    0.142E-02
RMM:  13    -0.231170633517E+04   -0.14820E-04   -0.13169E-05  2807   0.405E-03    0.992E-03
RMM:  14    -0.231170635419E+04   -0.19019E-04   -0.14987E-05  2810   0.350E-03    0.451E-03
RMM:  15    -0.231170636722E+04   -0.13031E-04   -0.66292E-06  2798   0.335E-03    0.244E-03
RMM:  16    -0.231170637450E+04   -0.72781E-05   -0.41746E-06  2633   0.228E-03
  57 F= -.23317743E+04 E0= -.23317743E+04  d E =-.250644E+00  mag=     2.0000
       N       E                     dE             d eps       ncg     rms          rms(c)
DAV:   1    -0.231170701793E+04   -0.65071E-03   -0.88266E+00  4400   0.308E+00    0.115E+00
RMM:   2    -0.231177219678E+04   -0.65179E-01   -0.73213E-01  5846   0.577E-01    0.551E-01
RMM:   3    -0.231177307308E+04   -0.87630E-03   -0.73564E-02  5167   0.213E-01    0.390E-01
RMM:   4    -0.231177156655E+04    0.15065E-02   -0.12568E-02  5236   0.660E-02    0.230E-01
RMM:   5    -0.231177088877E+04    0.67777E-03   -0.32780E-03  4715   0.474E-02    0.129E-01
RMM:   6    -0.231177107966E+04   -0.19089E-03   -0.50288E-04  4503   0.205E-02    0.149E-01
RMM:   7    -0.231177106550E+04    0.14159E-04   -0.11974E-04  3419   0.983E-03    0.134E-01
RMM:   8    -0.231177088353E+04    0.18197E-03   -0.54589E-04  4025   0.103E-02    0.464E-02
RMM:   9    -0.231177089156E+04   -0.80268E-05   -0.72104E-05  2918   0.648E-03
  58 F= -.23318390E+04 E0= -.23318390E+04  d E =-.315344E+00  mag=     2.0000
       N       E                     dE             d eps       ncg     rms          rms(c)
DAV:   1    -0.231181552850E+04   -0.44645E-01   -0.13020E+00  4432   0.121E+00    0.374E-01
RMM:   2    -0.231182168855E+04   -0.61600E-02   -0.69630E-02  5694   0.192E-01    0.161E-01
RMM:   3    -0.231182155252E+04    0.13603E-03   -0.48269E-03  5021   0.729E-02    0.104E-01
RMM:   4    -0.231182139275E+04    0.15977E-03   -0.12117E-03  4721   0.237E-02    0.537E-02
RMM:   5    -0.231182139015E+04    0.26021E-05   -0.16139E-04  4267   0.167E-02    0.331E-02
RMM:   6    -0.231182139294E+04   -0.27946E-05   -0.30001E-05  2876   0.450E-03
  59 F= -.23318896E+04 E0= -.23318896E+04  d E =-.505654E-01  mag=     2.0000
       N       E                     dE             d eps       ncg     rms          rms(c)
DAV:   1    -0.231186419421E+04   -0.42804E-01   -0.11714E+01  4376   0.362E+00    0.113E+00
RMM:   2    -0.231191965687E+04   -0.55463E-01   -0.62443E-01  5644   0.573E-01    0.502E-01
RMM:   3    -0.231191889527E+04    0.76160E-03   -0.50949E-02  5032   0.224E-01    0.321E-01
RMM:   4    -0.231191752395E+04    0.13713E-02   -0.11342E-02  4670   0.709E-02    0.169E-01
RMM:   5    -0.231191759991E+04   -0.75960E-04   -0.14082E-03  4767   0.501E-02    0.137E-01
RMM:   6    -0.231191757565E+04    0.24259E-04   -0.31530E-04  4318   0.112E-02    0.115E-01
RMM:   7    -0.231191740192E+04    0.17373E-03   -0.42255E-04  3941   0.126E-02    0.572E-02
RMM:   8    -0.231191743514E+04   -0.33225E-04   -0.94990E-05  3592   0.685E-03    0.577E-02
RMM:   9    -0.231191742741E+04    0.77351E-05   -0.48155E-05  2874   0.605E-03
  60 F= -.23319858E+04 E0= -.23319858E+04  d E =-.146804E+00  mag=     2.0000
       N       E                     dE             d eps       ncg     rms          rms(c)
DAV:   1    -0.231164303428E+04    0.27440E+00   -0.46821E+01  4376   0.723E+00    0.226E+00
RMM:   2    -0.231186531931E+04   -0.22229E+00   -0.25066E+00  5634   0.114E+00    0.100E+00
RMM:   3    -0.231186256501E+04    0.27543E-02   -0.21319E-01  4962   0.454E-01    0.622E-01
RMM:   4    -0.231185848784E+04    0.40772E-02   -0.43559E-02  4774   0.136E-01    0.373E-01
RMM:   5    -0.231185816714E+04    0.32070E-03   -0.59256E-03  4849   0.930E-02    0.317E-01
RMM:   6    -0.231185755347E+04    0.61367E-03   -0.19018E-03  5014   0.243E-02    0.218E-01
RMM:   7    -0.231185697496E+04    0.57851E-03   -0.19298E-03  4900   0.256E-02    0.168E-01
RMM:   8    -0.231185711555E+04   -0.14058E-03   -0.72627E-04  4815   0.164E-02    0.104E-01
RMM:   9    -0.231185704893E+04    0.66614E-04   -0.22740E-04  3672   0.110E-02    0.431E-02
RMM:  10    -0.231185701753E+04    0.31402E-04   -0.10986E-04  3428   0.615E-03    0.223E-02
RMM:  11    -0.231185700586E+04    0.11670E-04   -0.44006E-05  3004   0.579E-03    0.131E-02
RMM:  12    -0.231185700515E+04    0.70882E-06   -0.16318E-05  2818   0.444E-03
  61 F= -.23319259E+04 E0= -.23319259E+04  d E =-.868340E-01  mag=     2.0000
       N       E                     dE             d eps       ncg     rms          rms(c)
DAV:   1    -0.231183688960E+04    0.20116E-01   -0.21515E+01  4376   0.490E+00    0.152E+00
RMM:   2    -0.231193888048E+04   -0.10199E+00   -0.11530E+00  5596   0.785E-01    0.643E-01
RMM:   3    -0.231193767589E+04    0.12046E-02   -0.94822E-02  4971   0.293E-01    0.428E-01
RMM:   4    -0.231193571934E+04    0.19565E-02   -0.17755E-02  5021   0.878E-02    0.248E-01
RMM:   5    -0.231193482973E+04    0.88961E-03   -0.40050E-03  4792   0.621E-02    0.109E-01
RMM:   6    -0.231193480012E+04    0.29612E-04   -0.72144E-04  4594   0.236E-02    0.976E-02
RMM:   7    -0.231193484625E+04   -0.46124E-04   -0.17583E-04  3923   0.164E-02    0.904E-02
RMM:   8    -0.231193478812E+04    0.58131E-04   -0.18246E-04  3432   0.762E-03    0.382E-02
RMM:   9    -0.231193477019E+04    0.17923E-04   -0.80962E-05  3064   0.577E-03    0.289E-02
RMM:  10    -0.231193476103E+04    0.91604E-05   -0.25623E-05  2859   0.488E-03
  62 F= -.23320033E+04 E0= -.23320033E+04  d E =-.164277E+00  mag=     2.0000
       N       E                     dE             d eps       ncg     rms          rms(c)
DAV:   1    -0.231197177017E+04   -0.37000E-01   -0.44153E+00  4400   0.216E+00    0.550E-01
RMM:   2    -0.231199576131E+04   -0.23991E-01   -0.26246E-01  5645   0.339E-01    0.265E-01
RMM:   3    -0.231199649771E+04   -0.73639E-03   -0.24160E-02  5048   0.144E-01    0.166E-01
RMM:   4    -0.231199612422E+04    0.37349E-03   -0.38914E-03  4765   0.360E-02    0.950E-02
RMM:   5    -0.231199599951E+04    0.12471E-03   -0.71647E-04  4719   0.272E-02    0.377E-02
RMM:   6    -0.231199599246E+04    0.70488E-05   -0.11466E-04  4135   0.888E-03    0.289E-02
RMM:   7    -0.231199597658E+04    0.15875E-04   -0.38322E-05  2918   0.722E-03    0.140E-02
RMM:   8    -0.231199597974E+04   -0.31589E-05   -0.12560E-05  2809   0.321E-03
  63 F= -.23320653E+04 E0= -.23320653E+04  d E =-.619629E-01  mag=     2.0000
       N       E                     dE             d eps       ncg     rms          rms(c)
DAV:   1    -0.231187477544E+04    0.12120E+00   -0.34238E+01  4376   0.602E+00    0.154E+00
RMM:   2    -0.231206068711E+04   -0.18591E+00   -0.20381E+00  5593   0.941E-01    0.754E-01
RMM:   3    -0.231206835495E+04   -0.76678E-02   -0.20815E-01  5001   0.403E-01    0.482E-01
RMM:   4    -0.231206601882E+04    0.23361E-02   -0.30317E-02  4951   0.971E-02    0.299E-01
RMM:   5    -0.231206493851E+04    0.10803E-02   -0.48793E-03  4772   0.675E-02    0.178E-01
RMM:   6    -0.231206461349E+04    0.32502E-03   -0.12206E-03  4854   0.263E-02    0.103E-01
RMM:   7    -0.231206457167E+04    0.41814E-04   -0.53083E-04  4570   0.203E-02    0.101E-01
RMM:   8    -0.231206461886E+04   -0.47185E-04   -0.20540E-04  3976   0.968E-03    0.678E-02
RMM:   9    -0.231206459677E+04    0.22091E-04   -0.11321E-04  3003   0.757E-03    0.286E-02
RMM:  10    -0.231206458993E+04    0.68375E-05   -0.65736E-05  3122   0.515E-03
  64 F= -.23321360E+04 E0= -.23321360E+04  d E =-.132732E+00  mag=     2.0000
       N       E                     dE             d eps       ncg     rms          rms(c)
DAV:   1    -0.231207999804E+04   -0.15401E-01   -0.69187E+00  4528   0.267E+00    0.708E-01
RMM:   2    -0.231212300385E+04   -0.43006E-01   -0.46262E-01  5758   0.429E-01    0.341E-01
RMM:   3    -0.231212526308E+04   -0.22592E-02   -0.46884E-02  5113   0.168E-01    0.211E-01
RMM:   4    -0.231212480395E+04    0.45913E-03   -0.66235E-03  4756   0.425E-02    0.123E-01
RMM:   5    -0.231212464863E+04    0.15532E-03   -0.91442E-04  4757   0.298E-02    0.527E-02
RMM:   6    -0.231212462978E+04    0.18848E-04   -0.17022E-04  4284   0.109E-02    0.303E-02
RMM:   7    -0.231212462664E+04    0.31386E-05   -0.44640E-05  3011   0.796E-03
  65 F= -.23321972E+04 E0= -.23321972E+04  d E =-.611124E-01  mag=     2.0000
       N       E                     dE             d eps       ncg     rms          rms(c)
DAV:   1    -0.231199061199E+04    0.13402E+00   -0.27800E+01  4376   0.537E+00    0.143E+00
RMM:   2    -0.231216352505E+04   -0.17291E+00   -0.18668E+00  5755   0.864E-01    0.693E-01
RMM:   3    -0.231217283148E+04   -0.93064E-02   -0.19238E-01  5112   0.342E-01    0.431E-01
RMM:   4    -0.231217137828E+04    0.14532E-02   -0.26231E-02  4888   0.839E-02    0.269E-01
RMM:   5    -0.231217070280E+04    0.67548E-03   -0.32983E-03  4843   0.555E-02    0.160E-01
RMM:   6    -0.231217040161E+04    0.30119E-03   -0.10221E-03  4771   0.222E-02    0.856E-02
RMM:   7    -0.231217041035E+04   -0.87468E-05   -0.37593E-04  4441   0.179E-02    0.859E-02
RMM:   8    -0.231217042046E+04   -0.10105E-04   -0.15147E-04  3748   0.869E-03    0.495E-02
RMM:   9    -0.231217040084E+04    0.19620E-04   -0.74286E-05  2882   0.663E-03    0.189E-02
RMM:  10    -0.231217039135E+04    0.94911E-05   -0.38415E-05  2929   0.452E-03
  66 F= -.23322452E+04 E0= -.23322452E+04  d E =-.109120E+00  mag=     2.0000
       N       E                     dE             d eps       ncg     rms          rms(c)
DAV:   1    -0.231217884756E+04   -0.84467E-02   -0.41436E+00  4512   0.203E+00    0.571E-01
RMM:   2    -0.231221133792E+04   -0.32490E-01   -0.35315E-01  5884   0.343E-01    0.295E-01
RMM:   3    -0.231221365778E+04   -0.23199E-02   -0.37705E-02  5128   0.135E-01    0.187E-01
RMM:   4    -0.231221344466E+04    0.21312E-03   -0.52159E-03  4932   0.331E-02    0.112E-01
RMM:   5    -0.231221326643E+04    0.17823E-03   -0.76569E-04  4786   0.229E-02    0.351E-02
RMM:   6    -0.231221326650E+04   -0.66895E-07   -0.13773E-04  4097   0.104E-02    0.201E-02
RMM:   7    -0.231221326617E+04    0.32857E-06   -0.25608E-05  2856   0.633E-03
  67 F= -.23322885E+04 E0= -.23322885E+04  d E =-.433523E-01  mag=     2.0000
       N       E                     dE             d eps       ncg     rms          rms(c)
DAV:   1    -0.231211676646E+04    0.96500E-01   -0.15364E+01  4376   0.391E+00    0.110E+00
RMM:   2    -0.231223887626E+04   -0.12211E+00   -0.13325E+00  5897   0.668E-01    0.564E-01
RMM:   3    -0.231224744601E+04   -0.85698E-02   -0.13995E-01  5130   0.252E-01    0.371E-01
RMM:   4    -0.231224679841E+04    0.64761E-03   -0.19524E-02  5119   0.629E-02    0.236E-01
RMM:   5    -0.231224595879E+04    0.83961E-03   -0.28782E-03  4862   0.412E-02    0.939E-02
RMM:   6    -0.231224587647E+04    0.82321E-04   -0.70878E-04  4756   0.224E-02    0.431E-02
RMM:   7    -0.231224590722E+04   -0.30753E-04   -0.12025E-04  3758   0.123E-02    0.443E-02
RMM:   8    -0.231224590191E+04    0.53183E-05   -0.25106E-05  2843   0.503E-03
  68 F= -.23323222E+04 E0= -.23323222E+04  d E =-.770040E-01  mag=     2.0000
       N       E                     dE             d eps       ncg     rms          rms(c)
DAV:   1    -0.231224819579E+04   -0.22886E-02   -0.40862E+00  4400   0.203E+00    0.547E-01
RMM:   2    -0.231228253200E+04   -0.34336E-01   -0.36818E-01  5906   0.345E-01    0.277E-01
RMM:   3    -0.231228543659E+04   -0.29046E-02   -0.40040E-02  5143   0.134E-01    0.184E-01
RMM:   4    -0.231228537622E+04    0.60373E-04   -0.52482E-03  5101   0.304E-02    0.123E-01
RMM:   5    -0.231228515928E+04    0.21694E-03   -0.76769E-04  4796   0.201E-02    0.475E-02
RMM:   6    -0.231228515922E+04    0.64669E-07   -0.19114E-04  4226   0.121E-02    0.284E-02
RMM:   7    -0.231228516387E+04   -0.46497E-05   -0.27714E-05  2869   0.669E-03
  69 F= -.23323621E+04 E0= -.23323621E+04  d E =-.399330E-01  mag=     2.0000
       N       E                     dE             d eps       ncg     rms          rms(c)
DAV:   1    -0.231205468764E+04    0.23047E+00   -0.29868E+01  4376   0.549E+00    0.148E+00
RMM:   2    -0.231230962461E+04   -0.25494E+00   -0.27484E+00  6094   0.952E-01    0.750E-01
RMM:   3    -0.231232923245E+04   -0.19608E-01   -0.28163E-01  5337   0.309E-01    0.517E-01
RMM:   4    -0.231232884653E+04    0.38591E-03   -0.38516E-02  5363   0.793E-02    0.355E-01
RMM:   5    -0.231232729210E+04    0.15544E-02   -0.50001E-03  4873   0.464E-02    0.206E-01
RMM:   6    -0.231232676046E+04    0.53164E-03   -0.17849E-03  4809   0.325E-02    0.870E-02
RMM:   7    -0.231232692457E+04   -0.16411E-03   -0.41247E-04  4504   0.185E-02    0.951E-02
RMM:   8    -0.231232692866E+04   -0.40930E-05   -0.11806E-04  3454   0.920E-03    0.655E-02
RMM:   9    -0.231232689582E+04    0.32838E-04   -0.12133E-04  3070   0.614E-03    0.209E-02
RMM:  10    -0.231232690061E+04   -0.47892E-05   -0.31228E-05  2833   0.416E-03
  70 F= -.23324058E+04 E0= -.23324058E+04  d E =-.836510E-01  mag=     2.0000
       N       E                     dE             d eps       ncg     rms          rms(c)
DAV:   1    -0.231229669116E+04    0.30205E-01   -0.81305E+00  4376   0.279E+00    0.757E-01
RMM:   2    -0.231236716692E+04   -0.70476E-01   -0.76071E-01  6126   0.487E-01    0.407E-01
RMM:   3    -0.231237303341E+04   -0.58665E-02   -0.80629E-02  5341   0.166E-01    0.260E-01
RMM:   4    -0.231237291309E+04    0.12032E-03   -0.10776E-02  5188   0.417E-02    0.177E-01
RMM:   5    -0.231237267468E+04    0.23842E-03   -0.11542E-03  4921   0.233E-02    0.116E-01
RMM:   6    -0.231237258727E+04    0.87406E-04   -0.30090E-04  4220   0.124E-02    0.735E-02
RMM:   7    -0.231237256139E+04    0.25881E-04   -0.21923E-04  4045   0.106E-02    0.543E-02
RMM:   8    -0.231237257501E+04   -0.13617E-04   -0.75090E-05  3041   0.687E-03    0.325E-02
RMM:   9    -0.231237256897E+04    0.60398E-05   -0.35880E-05  2834   0.483E-03
  71 F= -.23324524E+04 E0= -.23324524E+04  d E =-.465664E-01  mag=     2.0000
       N       E                     dE             d eps       ncg     rms          rms(c)
DAV:   1    -0.231205003913E+04    0.32254E+00   -0.38241E+01  4376   0.607E+00    0.164E+00
RMM:   2    -0.231238763715E+04   -0.33760E+00   -0.36561E+00  6246   0.109E+00    0.893E-01
RMM:   3    -0.231241194748E+04   -0.24310E-01   -0.34658E-01  5523   0.315E-01    0.590E-01
RMM:   4    -0.231241144582E+04    0.50166E-03   -0.48795E-02  5166   0.870E-02    0.398E-01
RMM:   5    -0.231241035457E+04    0.10912E-02   -0.53848E-03  5066   0.475E-02    0.265E-01
RMM:   6    -0.231240992923E+04    0.42535E-03   -0.14497E-03  4883   0.278E-02    0.171E-01
RMM:   7    -0.231240972692E+04    0.20231E-03   -0.10708E-03  4766   0.217E-02    0.104E-01
RMM:   8    -0.231240976746E+04   -0.40539E-04   -0.34517E-04  4322   0.143E-02    0.627E-02
RMM:   9    -0.231240974364E+04    0.23819E-04   -0.15076E-04  3307   0.840E-03    0.228E-02
RMM:  10    -0.231240973813E+04    0.55146E-05   -0.32797E-05  2833   0.490E-03
  72 F= -.23324917E+04 E0= -.23324917E+04  d E =-.858836E-01  mag=     2.0000
       N       E                     dE             d eps       ncg     rms          rms(c)
DAV:   1    -0.231236088927E+04    0.48854E-01   -0.10705E+01  4376   0.319E+00    0.947E-01
RMM:   2    -0.231244942795E+04   -0.88539E-01   -0.96222E-01  6095   0.564E-01    0.490E-01
RMM:   3    -0.231245555369E+04   -0.61257E-02   -0.97897E-02  5362   0.186E-01    0.311E-01
RMM:   4    -0.231245522896E+04    0.32473E-03   -0.13496E-02  4903   0.513E-02    0.201E-01
RMM:   5    -0.231245498379E+04    0.24517E-03   -0.16978E-03  5055   0.311E-02    0.135E-01
RMM:   6    -0.231245486749E+04    0.11630E-03   -0.36773E-04  4441   0.140E-02    0.899E-02
RMM:   7    -0.231245479445E+04    0.73045E-04   -0.28597E-04  4115   0.120E-02    0.541E-02
RMM:   8    -0.231245479433E+04    0.11455E-06   -0.95861E-05  3446   0.760E-03
  73 F= -.23325371E+04 E0= -.23325371E+04  d E =-.453600E-01  mag=     2.0000
       N       E                     dE             d eps       ncg     rms          rms(c)
DAV:   1    -0.231241172844E+04    0.43066E-01   -0.58164E+00  4464   0.234E+00    0.694E-01
RMM:   2    -0.231245943465E+04   -0.47706E-01   -0.51764E-01  6090   0.412E-01    0.355E-01
RMM:   3    -0.231246256855E+04   -0.31339E-02   -0.50269E-02  5344   0.138E-01    0.217E-01
RMM:   4    -0.231246232660E+04    0.24195E-03   -0.69476E-03  4780   0.384E-02    0.137E-01
RMM:   5    -0.231246220143E+04    0.12517E-03   -0.81937E-04  4749   0.241E-02    0.845E-02
RMM:   6    -0.231246214398E+04    0.57447E-04   -0.17736E-04  4184   0.101E-02    0.549E-02
RMM:   7    -0.231246211294E+04    0.31039E-04   -0.10543E-04  3524   0.849E-03    0.333E-02
RMM:   8    -0.231246211139E+04    0.15482E-05   -0.38781E-05  2944   0.540E-03
  74 F= -.23325446E+04 E0= -.23325446E+04  d E =-.529471E-01  mag=     2.0000
       N       E                     dE             d eps       ncg     rms          rms(c)
DAV:   1    -0.231242520331E+04    0.36910E-01   -0.86050E+00  4376   0.296E+00    0.889E-01
RMM:   2    -0.231248344221E+04   -0.58239E-01   -0.64265E-01  5910   0.500E-01    0.414E-01
RMM:   3    -0.231248602038E+04   -0.25782E-02   -0.60043E-02  5213   0.172E-01    0.255E-01
RMM:   4    -0.231248549367E+04    0.52672E-03   -0.89967E-03  4743   0.498E-02    0.154E-01
RMM:   5    -0.231248530835E+04    0.18532E-03   -0.12557E-03  4922   0.331E-02    0.836E-02
RMM:   6    -0.231248524348E+04    0.64869E-04   -0.23847E-04  4572   0.122E-02    0.508E-02
RMM:   7    -0.231248522237E+04    0.21108E-04   -0.81940E-05  3495   0.937E-03    0.295E-02
RMM:   8    -0.231248522080E+04    0.15716E-05   -0.29862E-05  2887   0.485E-03
  75 F= -.23325682E+04 E0= -.23325682E+04  d E =-.235517E-01  mag=     2.0000
       N       E                     dE             d eps       ncg     rms          rms(c)
DAV:   1    -0.231248446496E+04    0.75741E-03   -0.13010E-01  5136   0.364E-01    0.110E-01
RMM:   2    -0.231248533549E+04   -0.87053E-03   -0.96413E-03  5974   0.620E-02    0.517E-02
RMM:   3    -0.231248538549E+04   -0.49995E-04   -0.10235E-03  4275   0.227E-02    0.315E-02
RMM:   4    -0.231248537682E+04    0.86674E-05   -0.13289E-04  3153   0.669E-03    0.187E-02
RMM:   5    -0.231248537179E+04    0.50286E-05   -0.22585E-05  2862   0.536E-03
  76 F= -.23325684E+04 E0= -.23325684E+04  d E =-.237591E-01  mag=     2.0000
       N       E                     dE             d eps       ncg     rms          rms(c)
DAV:   1    -0.231249018219E+04   -0.48054E-02   -0.23639E+00  4416   0.162E+00    0.424E-01
RMM:   2    -0.231249900819E+04   -0.88260E-02   -0.10103E-01  5499   0.248E-01    0.184E-01
RMM:   3    -0.231249870373E+04    0.30445E-03   -0.64535E-03  4878   0.929E-02    0.116E-01
RMM:   4    -0.231249848891E+04    0.21482E-03   -0.15507E-03  4700   0.293E-02    0.596E-02
RMM:   5    -0.231249846142E+04    0.27487E-04   -0.24563E-04  4478   0.195E-02    0.261E-02
RMM:   6    -0.231249846136E+04    0.66910E-07   -0.44866E-05  3289   0.582E-03
  77 F= -.23325821E+04 E0= -.23325821E+04  d E =-.136511E-01  mag=     2.0000
       N       E                     dE             d eps       ncg     rms          rms(c)
DAV:   1    -0.231249504377E+04    0.34177E-02   -0.16076E+00  4448   0.134E+00    0.349E-01
RMM:   2    -0.231250097463E+04   -0.59309E-02   -0.68011E-02  5556   0.205E-01    0.154E-01
RMM:   3    -0.231250082421E+04    0.15042E-03   -0.50635E-03  4941   0.741E-02    0.100E-01
RMM:   4    -0.231250069518E+04    0.12903E-03   -0.11403E-03  4768   0.233E-02    0.574E-02
RMM:   5    -0.231250065471E+04    0.40466E-04   -0.20106E-04  4342   0.154E-02    0.233E-02
RMM:   6    -0.231250065499E+04   -0.27678E-06   -0.35938E-05  3143   0.594E-03
  78 F= -.23325847E+04 E0= -.23325847E+04  d E =-.163037E-01  mag=     2.0000
       N       E                     dE             d eps       ncg     rms          rms(c)
DAV:   1    -0.231250389944E+04   -0.32447E-02   -0.14060E+00  4528   0.124E+00    0.285E-01
RMM:   2    -0.231250884931E+04   -0.49499E-02   -0.55363E-02  5546   0.186E-01    0.136E-01
RMM:   3    -0.231250880631E+04    0.42999E-04   -0.46784E-03  4903   0.714E-02    0.898E-02
RMM:   4    -0.231250872314E+04    0.83172E-04   -0.84496E-04  4792   0.203E-02    0.536E-02
RMM:   5    -0.231250869032E+04    0.32817E-04   -0.20258E-04  4337   0.138E-02    0.236E-02
RMM:   6    -0.231250868858E+04    0.17380E-05   -0.32618E-05  2912   0.537E-03
  79 F= -.23325932E+04 E0= -.23325932E+04  d E =-.846188E-02  mag=     2.0000
       N       E                     dE             d eps       ncg     rms          rms(c)
DAV:   1    -0.231250275782E+04    0.59325E-02   -0.23215E+00  4400   0.159E+00    0.368E-01
RMM:   2    -0.231251095401E+04   -0.81962E-02   -0.91651E-02  5440   0.239E-01    0.175E-01
RMM:   3    -0.231251084937E+04    0.10464E-03   -0.76662E-03  4885   0.904E-02    0.116E-01
RMM:   4    -0.231251070857E+04    0.14080E-03   -0.14011E-03  4830   0.258E-02    0.696E-02
RMM:   5    -0.231251064689E+04    0.61687E-04   -0.32981E-04  4563   0.175E-02    0.307E-02
RMM:   6    -0.231251064241E+04    0.44796E-05   -0.53034E-05  3219   0.651E-03
  80 F= -.23325957E+04 E0= -.23325957E+04  d E =-.109627E-01  mag=     2.0000
       N       E                     dE             d eps       ncg     rms          rms(c)
[...]
RMM:   4    -0.231300561582E+04    0.12636E-03   -0.16267E-03  4774   0.252E-02    0.681E-02
RMM:   5    -0.231300557183E+04    0.43996E-04   -0.28645E-04  4403   0.180E-02    0.292E-02
RMM:   6    -0.231300557149E+04    0.33389E-06   -0.46195E-05  3102   0.638E-03
 168 F= -.23330934E+04 E0= -.23330934E+04  d E =-.315344E-02  mag=     2.0000
       N       E                     dE             d eps       ncg     rms          rms(c)
DAV:   1    -0.231300361232E+04    0.19595E-02   -0.43670E-01  4544   0.695E-01    0.172E-01
RMM:   2    -0.231300580276E+04   -0.21904E-02   -0.23264E-02  5430   0.107E-01    0.870E-02
RMM:   3    -0.231300583931E+04   -0.36552E-04   -0.19442E-03  4792   0.428E-02    0.561E-02
RMM:   4    -0.231300580509E+04    0.34223E-04   -0.33065E-04  4256   0.115E-02    0.290E-02
RMM:   5    -0.231300580059E+04    0.44950E-05   -0.42504E-05  3006   0.840E-03
 169 F= -.23330935E+04 E0= -.23330935E+04  d E =-.319669E-02  mag=     2.0000
       N       E                     dE             d eps       ncg     rms          rms(c)
DAV:   1    -0.231300012881E+04    0.56763E-02   -0.22082E+00  4408   0.156E+00    0.344E-01
RMM:   2    -0.231300916736E+04   -0.90386E-02   -0.97088E-02  5158   0.231E-01    0.177E-01
RMM:   3    -0.231300912985E+04    0.37512E-04   -0.67977E-03  4692   0.988E-02    0.117E-01
RMM:   4    -0.231300899823E+04    0.13163E-03   -0.13222E-03  4729   0.247E-02    0.629E-02
RMM:   5    -0.231300897023E+04    0.27998E-04   -0.24182E-04  4370   0.174E-02    0.241E-02
RMM:   6    -0.231300897042E+04   -0.18996E-06   -0.34345E-05  2965   0.589E-03
 170 F= -.23330964E+04 E0= -.23330964E+04  d E =-.289852E-02  mag=     2.0000
       N       E                     dE             d eps       ncg     rms          rms(c)
DAV:   1    -0.231300741357E+04    0.15567E-02   -0.43627E-01  4448   0.695E-01    0.154E-01
RMM:   2    -0.231300923178E+04   -0.18182E-02   -0.19452E-02  5224   0.104E-01    0.803E-02
RMM:   3    -0.231300922123E+04    0.10551E-04   -0.13580E-03  4655   0.402E-02    0.526E-02
RMM:   4    -0.231300919090E+04    0.30322E-04   -0.26390E-04  4222   0.113E-02    0.260E-02
RMM:   5    -0.231300918946E+04    0.14475E-05   -0.37462E-05  2944   0.801E-03
 171 F= -.23330965E+04 E0= -.23330965E+04  d E =-.299873E-02  mag=     2.0000
       N       E                     dE             d eps       ncg     rms          rms(c)
DAV:   1    -0.231300607289E+04    0.31180E-02   -0.20960E+00  4376   0.153E+00    0.331E-01
RMM:   2    -0.231301286723E+04   -0.67943E-02   -0.74123E-02  4960   0.220E-01    0.163E-01
RMM:   3    -0.231301256323E+04    0.30400E-03   -0.41001E-03  4579   0.948E-02    0.105E-01
RMM:   4    -0.231301242280E+04    0.14044E-03   -0.10568E-03  4514   0.254E-02    0.477E-02
RMM:   5    -0.231301241204E+04    0.10756E-04   -0.14160E-04  4190   0.179E-02    0.157E-02
RMM:   6    -0.231301241150E+04    0.54594E-06   -0.25664E-05  2914   0.468E-03
 172 F= -.23330995E+04 E0= -.23330995E+04  d E =-.301717E-02  mag=     2.0000
       N       E                     dE             d eps       ncg     rms          rms(c)
DAV:   1    -0.231301216647E+04    0.24558E-03   -0.12374E-01  4672   0.371E-01    0.815E-02
RMM:   2    -0.231301257563E+04   -0.40916E-03   -0.44401E-03  5116   0.546E-02    0.399E-02
RMM:   3    -0.231301255782E+04    0.17809E-04   -0.23691E-04  4202   0.234E-02    0.258E-02
RMM:   4    -0.231301254901E+04    0.88070E-05   -0.55199E-05  3382   0.646E-03
 173 F= -.23330996E+04 E0= -.23330996E+04  d E =-.310561E-02  mag=     2.0000
       N       E                     dE             d eps       ncg     rms          rms(c)
DAV:   1    -0.231301126144E+04    0.12964E-02   -0.12253E+00  4376   0.118E+00    0.291E-01
RMM:   2    -0.231301507823E+04   -0.38168E-02   -0.42148E-02  4949   0.173E-01    0.128E-01
RMM:   3    -0.231301483091E+04    0.24731E-03   -0.25385E-03  4509   0.812E-02    0.807E-02
RMM:   4    -0.231301473460E+04    0.96313E-04   -0.80991E-04  4439   0.229E-02    0.344E-02
RMM:   5    -0.231301473248E+04    0.21204E-05   -0.83221E-05  3837   0.162E-02
 174 F= -.23331016E+04 E0= -.23331016E+04  d E =-.197990E-02  mag=     2.0000
       N       E                     dE             d eps       ncg     rms          rms(c)
DAV:   1    -0.231301472113E+04    0.13470E-04   -0.16379E-03  5424   0.444E-02    0.148E-02
RMM:   2    -0.231301472813E+04   -0.70001E-05   -0.77770E-05  3722   0.809E-03
 175 F= -.23331016E+04 E0= -.23331016E+04  d E =-.196808E-02  mag=     2.0000
       N       E                     dE             d eps       ncg     rms          rms(c)
DAV:   1    -0.231301411193E+04    0.60920E-03   -0.67491E-01  4400   0.875E-01    0.210E-01
RMM:   2    -0.231301609633E+04   -0.19844E-02   -0.22146E-02  5030   0.128E-01    0.959E-02
RMM:   3    -0.231301596978E+04    0.12654E-03   -0.15048E-03  4539   0.636E-02    0.611E-02
RMM:   4    -0.231301592062E+04    0.49163E-04   -0.45081E-04  4450   0.171E-02    0.297E-02
RMM:   5    -0.231301591679E+04    0.38297E-05   -0.58041E-05  3351   0.120E-02
 176 F= -.23331028E+04 E0= -.23331028E+04  d E =-.119242E-02  mag=     2.0000
       N       E                     dE             d eps       ncg     rms          rms(c)
DAV:   1    -0.231301576475E+04    0.15587E-03   -0.41332E-02  4720   0.217E-01    0.536E-02
RMM:   2    -0.231301589404E+04   -0.12929E-03   -0.14243E-03  5220   0.332E-02    0.259E-02
RMM:   3    -0.231301588778E+04    0.62536E-05   -0.11131E-04  3538   0.155E-02    0.181E-02
RMM:   4    -0.231301588361E+04    0.41764E-05   -0.27365E-05  2827   0.450E-03
 177 F= -.23331027E+04 E0= -.23331027E+04  d E =-.116035E-02  mag=     2.0000
       N       E                     dE             d eps       ncg     rms          rms(c)
DAV:   1    -0.231301526427E+04    0.62352E-03   -0.64575E-01  4388   0.850E-01    0.193E-01
RMM:   2    -0.231301690786E+04   -0.16436E-02   -0.18440E-02  4603   0.120E-01    0.857E-02
RMM:   3    -0.231301673531E+04    0.17255E-03   -0.91804E-04  4470   0.527E-02    0.543E-02
RMM:   4    -0.231301668778E+04    0.47530E-04   -0.39422E-04  4323   0.164E-02    0.200E-02
RMM:   5    -0.231301668766E+04    0.12603E-06   -0.28281E-05  3021   0.109E-02
 178 F= -.23331037E+04 E0= -.23331037E+04  d E =-.936772E-03  mag=     2.0000
       N       E                     dE             d eps       ncg     rms          rms(c)
DAV:   1    -0.231301662086E+04    0.66927E-04   -0.16572E-02  5064   0.137E-01    0.326E-02
RMM:   2    -0.231301666627E+04   -0.45415E-04   -0.50738E-04  4821   0.204E-02    0.155E-02
RMM:   3    -0.231301666184E+04    0.44304E-05   -0.27559E-05  2924   0.904E-03
 179 F= -.23331037E+04 E0= -.23331037E+04  d E =-.932276E-03  mag=     2.0000
       N       E                     dE             d eps       ncg     rms          rms(c)
DAV:   1    -0.231301631075E+04    0.35552E-03   -0.57157E-01  4388   0.806E-01    0.183E-01
RMM:   2    -0.231301790785E+04   -0.15971E-02   -0.17757E-02  4859   0.116E-01    0.840E-02
RMM:   3    -0.231301777537E+04    0.13249E-03   -0.10079E-03  4486   0.491E-02    0.536E-02
RMM:   4    -0.231301773692E+04    0.38447E-04   -0.35259E-04  4430   0.152E-02    0.259E-02
RMM:   5    -0.231301773232E+04    0.46001E-05   -0.42152E-05  3031   0.103E-02
 180 F= -.23331048E+04 E0= -.23331048E+04  d E =-.118334E-02  mag=     2.0000
       N       E                     dE             d eps       ncg     rms          rms(c)
DAV:   1    -0.231301603314E+04    0.17038E-02   -0.50692E-01  4388   0.760E-01    0.173E-01
RMM:   2    -0.231301748663E+04   -0.14535E-02   -0.16070E-02  4820   0.110E-01    0.809E-02
RMM:   3    -0.231301736835E+04    0.11828E-03   -0.99016E-04  4584   0.427E-02    0.536E-02
RMM:   4    -0.231301732987E+04    0.38485E-04   -0.29375E-04  4405   0.136E-02    0.275E-02
RMM:   5    -0.231301732363E+04    0.62431E-05   -0.51154E-05  3148   0.928E-03
 181 F= -.23331045E+04 E0= -.23331045E+04  d E =-.882425E-03  mag=     2.0000
       N       E                     dE             d eps       ncg     rms          rms(c)
DAV:   1    -0.231301727149E+04    0.58380E-04   -0.19118E-01  4400   0.466E-01    0.105E-01
RMM:   2    -0.231301779129E+04   -0.51980E-03   -0.58279E-03  5150   0.680E-02    0.482E-02
RMM:   3    -0.231301774986E+04    0.41424E-04   -0.38580E-04  4487   0.322E-02    0.302E-02
RMM:   4    -0.231301773781E+04    0.12056E-04   -0.82789E-05  3829   0.817E-03    0.156E-02
RMM:   5    -0.231301773658E+04    0.12323E-05   -0.13467E-05  2827   0.617E-03
 182 F= -.23331049E+04 E0= -.23331049E+04  d E =-.122926E-02  mag=     2.0000
       N       E                     dE             d eps       ncg     rms          rms(c)
DAV:   1    -0.231301667830E+04    0.10595E-02   -0.63890E-01  4388   0.850E-01    0.196E-01
RMM:   2    -0.231301873107E+04   -0.20528E-02   -0.22671E-02  5020   0.125E-01    0.890E-02
RMM:   3    -0.231301862721E+04    0.10387E-03   -0.15409E-03  4544   0.537E-02    0.588E-02
RMM:   4    -0.231301858747E+04    0.39742E-04   -0.35991E-04  4488   0.145E-02    0.320E-02
RMM:   5    -0.231301857545E+04    0.12017E-04   -0.79408E-05  3449   0.106E-02    0.148E-02
RMM:   6    -0.231301857132E+04    0.41247E-05   -0.19261E-05  2817   0.434E-03
 183 F= -.23331057E+04 E0= -.23331057E+04  d E =-.851790E-03  mag=     2.0000
       N       E                     dE             d eps       ncg     rms          rms(c)
DAV:   1    -0.231301856208E+04    0.13365E-04   -0.23450E-03  5432   0.517E-02    0.144E-02
RMM:   2    -0.231301857042E+04   -0.83352E-05   -0.86597E-05  3656   0.914E-03
 184 F= -.23331057E+04 E0= -.23331057E+04  d E =-.851954E-03  mag=     2.0000
       N       E                     dE             d eps       ncg     rms          rms(c)
DAV:   1    -0.231301862032E+04   -0.58232E-04   -0.33327E-01  4388   0.602E-01    0.136E-01
RMM:   2    -0.231301952570E+04   -0.90539E-03   -0.10261E-02  5133   0.898E-02    0.683E-02
RMM:   3    -0.231301945205E+04    0.73650E-04   -0.71822E-04  4640   0.427E-02    0.436E-02
RMM:   4    -0.231301942348E+04    0.28573E-04   -0.18658E-04  4192   0.117E-02    0.200E-02
RMM:   5    -0.231301942100E+04    0.24857E-05   -0.24767E-05  2913   0.831E-03
 185 F= -.23331065E+04 E0= -.23331065E+04  d E =-.750026E-03  mag=     2.0000
       N       E                     dE             d eps       ncg     rms          rms(c)
DAV:   1    -0.231301914917E+04    0.27431E-03   -0.98232E-02  4400   0.327E-01    0.741E-02
RMM:   2    -0.231301942325E+04   -0.27408E-03   -0.30842E-03  5083   0.492E-02    0.371E-02
RMM:   3    -0.231301940020E+04    0.23050E-04   -0.18249E-04  4162   0.220E-02    0.238E-02
RMM:   4    -0.231301939095E+04    0.92520E-05   -0.72566E-05  3782   0.714E-03
 186 F= -.23331064E+04 E0= -.23331064E+04  d E =-.665515E-03  mag=     2.0000
       N       E                     dE             d eps       ncg     rms          rms(c)
DAV:   1    -0.231301936617E+04    0.34034E-04   -0.35588E-02  4464   0.196E-01    0.436E-02
RMM:   2    -0.231301946421E+04   -0.98042E-04   -0.11138E-03  5584   0.317E-02    0.215E-02
RMM:   3    -0.231301945338E+04    0.10831E-04   -0.66282E-05  3248   0.103E-02    0.133E-02
RMM:   4    -0.231301945083E+04    0.25488E-05   -0.13811E-05  2821   0.406E-03
 187 F= -.23331065E+04 E0= -.23331065E+04  d E =-.757957E-03  mag=     2.0000
       N       E                     dE             d eps       ncg     rms          rms(c)
DAV:   1    -0.231301950065E+04   -0.47275E-04   -0.28525E-01  4388   0.553E-01    0.118E-01
RMM:   2    -0.231302017740E+04   -0.67675E-03   -0.76111E-03  4704   0.785E-02    0.556E-02
RMM:   3    -0.231302011337E+04    0.64026E-04   -0.47173E-04  4415   0.391E-02    0.356E-02
RMM:   4    -0.231302009367E+04    0.19708E-04   -0.16520E-04  4103   0.108E-02    0.133E-02
RMM:   5    -0.231302009236E+04    0.13060E-05   -0.14820E-05  2831   0.726E-03
 188 F= -.23331072E+04 E0= -.23331072E+04  d E =-.658080E-03  mag=     2.0000
       N       E                     dE             d eps       ncg     rms          rms(c)
DAV:   1    -0.231301972614E+04    0.36752E-03   -0.21746E-01  4400   0.484E-01    0.104E-01
RMM:   2    -0.231302025681E+04   -0.53067E-03   -0.59354E-03  4658   0.685E-02    0.500E-02
RMM:   3    -0.231302020197E+04    0.54834E-04   -0.31823E-04  4344   0.290E-02    0.321E-02
RMM:   4    -0.231302018676E+04    0.15219E-04   -0.13123E-04  4034   0.959E-03    0.120E-02
RMM:   5    -0.231302018533E+04    0.14236E-05   -0.11087E-05  2827   0.599E-03
 189 F= -.23331073E+04 E0= -.23331073E+04  d E =-.765875E-03  mag=     2.0000
       N       E                     dE             d eps       ncg     rms          rms(c)
DAV:   1    -0.231302010352E+04    0.83232E-04   -0.27916E-01  4388   0.549E-01    0.120E-01
RMM:   2    -0.231302081109E+04   -0.70756E-03   -0.78943E-03  4766   0.779E-02    0.567E-02
RMM:   3    -0.231302074072E+04    0.70366E-04   -0.41000E-04  4451   0.311E-02    0.362E-02
RMM:   4    -0.231302071916E+04    0.21559E-04   -0.16386E-04  4136   0.106E-02    0.125E-02
RMM:   5    -0.231302071948E+04   -0.31527E-06   -0.12002E-05  2839   0.705E-03
 190 F= -.23331079E+04 E0= -.23331079E+04  d E =-.637958E-03  mag=     2.0000
       N       E                     dE             d eps       ncg     rms          rms(c)
DAV:   1    -0.231302051384E+04    0.20532E-03   -0.10944E-01  4464   0.344E-01    0.753E-02
RMM:   2    -0.231302079324E+04   -0.27940E-03   -0.31095E-03  4777   0.491E-02    0.363E-02
RMM:   3    -0.231302076608E+04    0.27165E-04   -0.17389E-04  3907   0.201E-02    0.234E-02
RMM:   4    -0.231302075732E+04    0.87566E-05   -0.71249E-05  3829   0.713E-03
 191 F= -.23331080E+04 E0= -.23331080E+04  d E =-.741068E-03  mag=     2.0000
       N       E                     dE             d eps       ncg     rms          rms(c)
DAV:   1    -0.231302090481E+04   -0.13873E-03   -0.19407E-01  4388   0.459E-01    0.113E-01
RMM:   2    -0.231302141721E+04   -0.51240E-03   -0.57757E-03  5437   0.689E-02    0.505E-02
RMM:   3    -0.231302136411E+04    0.53096E-04   -0.31997E-04  4796   0.260E-02    0.318E-02
RMM:   4    -0.231302135012E+04    0.13992E-04   -0.11469E-04  3968   0.899E-03    0.132E-02
RMM:   5    -0.231302134895E+04    0.11750E-05   -0.15343E-05  2823   0.590E-03
 192 F= -.23331087E+04 E0= -.23331087E+04  d E =-.673610E-03  mag=     2.0000
       N       E                     dE             d eps       ncg     rms          rms(c)
DAV:   1    -0.231302109429E+04    0.25583E-03   -0.13833E-01  4400   0.388E-01    0.951E-02
RMM:   2    -0.231302145649E+04   -0.36220E-03   -0.40668E-03  4993   0.568E-02    0.432E-02
RMM:   3    -0.231302142339E+04    0.33105E-04   -0.23650E-04  4144   0.228E-02    0.277E-02
RMM:   4    -0.231302141252E+04    0.10869E-04   -0.89872E-05  3896   0.784E-03    0.133E-02
RMM:   5    -0.231302141098E+04    0.15389E-05   -0.13014E-05  2827   0.540E-03
 193 F= -.23331088E+04 E0= -.23331088E+04  d E =-.805117E-03  mag=     2.0000
       N       E                     dE             d eps       ncg     rms          rms(c)
DAV:   1    -0.231302152782E+04   -0.11530E-03   -0.17073E-01  4388   0.424E-01    0.936E-02
RMM:   2    -0.231302194359E+04   -0.41577E-03   -0.45951E-03  4814   0.605E-02    0.463E-02
RMM:   3    -0.231302190284E+04    0.40754E-04   -0.24315E-04  4240   0.244E-02    0.301E-02
RMM:   4    -0.231302189080E+04    0.12039E-04   -0.10138E-04  3943   0.825E-03    0.134E-02
RMM:   5    -0.231302189032E+04    0.47519E-06   -0.12113E-05  2825   0.546E-03
 194 F= -.23331093E+04 E0= -.23331093E+04  d E =-.539102E-03  mag=     2.0000
       N       E                     dE             d eps       ncg     rms          rms(c)
DAV:   1    -0.231302134781E+04    0.54298E-03   -0.31329E-01  4388   0.575E-01    0.127E-01
RMM:   2    -0.231302210863E+04   -0.76082E-03   -0.84115E-03  4776   0.818E-02    0.628E-02
RMM:   3    -0.231302203365E+04    0.74979E-04   -0.43826E-04  4395   0.321E-02    0.407E-02
RMM:   4    -0.231302201133E+04    0.22322E-04   -0.19341E-04  4155   0.112E-02    0.172E-02
RMM:   5    -0.231302200836E+04    0.29657E-05   -0.21724E-05  2863   0.714E-03
 195 F= -.23331095E+04 E0= -.23331095E+04  d E =-.738560E-03  mag=     2.0000
       N       E                     dE             d eps       ncg     rms          rms(c)
DAV:   1    -0.231302210111E+04   -0.89784E-04   -0.19501E-01  4400   0.451E-01    0.925E-02
RMM:   2    -0.231302257289E+04   -0.47178E-03   -0.51645E-03  4721   0.634E-02    0.486E-02
RMM:   3    -0.231302252701E+04    0.45885E-04   -0.28011E-04  4282   0.257E-02    0.318E-02
RMM:   4    -0.231302251270E+04    0.14312E-04   -0.10471E-04  3972   0.845E-03    0.124E-02
RMM:   5    -0.231302251274E+04   -0.43467E-07   -0.12158E-05  2835   0.560E-03
 196 F= -.23331101E+04 E0= -.23331101E+04  d E =-.572537E-03  mag=     2.0000
       N       E                     dE             d eps       ncg     rms          rms(c)
DAV:   1    -0.231302180909E+04    0.70360E-03   -0.43355E-01  4388   0.673E-01    0.137E-01
RMM:   2    -0.231302285386E+04   -0.10448E-02   -0.11441E-02  4667   0.937E-02    0.719E-02
RMM:   3    -0.231302274449E+04    0.10937E-03   -0.55858E-04  4421   0.385E-02    0.466E-02
RMM:   4    -0.231302271163E+04    0.32859E-04   -0.25620E-04  4229   0.129E-02    0.163E-02
RMM:   5    -0.231302271250E+04   -0.86622E-06   -0.18341E-05  2860   0.813E-03
 197 F= -.23331104E+04 E0= -.23331104E+04  d E =-.874572E-03  mag=     2.0000
       N       E                     dE             d eps       ncg     rms          rms(c)
DAV:   1    -0.231302265883E+04    0.52804E-04   -0.30950E-01  4388   0.570E-01    0.128E-01
RMM:   2    -0.231302348878E+04   -0.82995E-03   -0.91710E-03  4722   0.804E-02    0.632E-02
RMM:   3    -0.231302340436E+04    0.84424E-04   -0.45344E-04  4450   0.305E-02    0.400E-02
RMM:   4    -0.231302337659E+04    0.27765E-04   -0.18816E-04  4078   0.108E-02    0.144E-02
RMM:   5    -0.231302337754E+04   -0.94608E-06   -0.17228E-05  2846   0.739E-03
 198 F= -.23331112E+04 E0= -.23331112E+04  d E =-.777355E-03  mag=     2.0000
       N       E                     dE             d eps       ncg     rms          rms(c)
DAV:   1    -0.231302303864E+04    0.33796E-03   -0.16962E-01  4400   0.422E-01    0.951E-02
RMM:   2    -0.231302349174E+04   -0.45310E-03   -0.50176E-03  4765   0.599E-02    0.470E-02
RMM:   3    -0.231302344870E+04    0.43035E-04   -0.27024E-04  4153   0.241E-02    0.299E-02
RMM:   4    -0.231302343213E+04    0.16570E-04   -0.10650E-04  3977   0.830E-03    0.114E-02
RMM:   5    -0.231302343198E+04    0.14898E-06   -0.10772E-05  2822   0.580E-03
 199 F= -.23331113E+04 E0= -.23331113E+04  d E =-.915108E-03  mag=     2.0000
       N       E                     dE             d eps       ncg     rms          rms(c)
DAV:   1    -0.231302303352E+04    0.39862E-03   -0.31271E-01  4388   0.566E-01    0.123E-01
RMM:   2    -0.231302402268E+04   -0.98917E-03   -0.10680E-02  4843   0.795E-02    0.655E-02
RMM:   3    -0.231302396501E+04    0.57669E-04   -0.59190E-04  4399   0.334E-02    0.423E-02
RMM:   4    -0.231302393997E+04    0.25043E-04   -0.18529E-04  4096   0.100E-02    0.179E-02
RMM:   5    -0.231302393963E+04    0.34030E-06   -0.25794E-05  2920   0.719E-03
 200 F= -.23331120E+04 E0= -.23331120E+04  d E =-.682482E-03  mag=     2.0000
       N       E                     dE             d eps       ncg     rms          rms(c)
DAV:   1    -0.231302256123E+04    0.13787E-02   -0.45425E-01  4388   0.682E-01    0.148E-01
RMM:   2    -0.231302401212E+04   -0.14509E-02   -0.15635E-02  4844   0.959E-02    0.792E-02
RMM:   3    -0.231302392541E+04    0.86708E-04   -0.85912E-04  4463   0.373E-02    0.515E-02
RMM:   4    -0.231302388963E+04    0.35785E-04   -0.27034E-04  4186   0.118E-02    0.226E-02
RMM:   5    -0.231302388756E+04    0.20733E-05   -0.42263E-05  3021   0.821E-03
 201 F= -.23331122E+04 E0= -.23331122E+04  d E =-.841099E-03  mag=     2.0000
