       N       E                     dE             d eps       ncg     rms          rms(c)
DAV:   1     0.126406576922E+05    0.12641E+05   -0.82585E+05  4440   0.143E+03
DAV:   2    -0.106973687272E+04   -0.13710E+05   -0.13137E+05  5272   0.329E+02
DAV:   3    -0.246221019089E+04   -0.13925E+04   -0.13796E+04  5320   0.110E+02
DAV:   4    -0.250717676487E+04   -0.44967E+02   -0.44741E+02  6608   0.296E+01
DAV:   5    -0.250806724048E+04   -0.89048E+00   -0.88899E+00  5512   0.329E+00    0.170E+02
RMM:   6    -0.146986872287E+04    0.10382E+04   -0.19385E+03  4370   0.386E+01    0.721E+01
RMM:   7    -0.164511172049E+04   -0.17524E+03   -0.28298E+02  4942   0.141E+01    0.476E+01
RMM:   8    -0.170122641686E+04   -0.56115E+02   -0.36074E+01  5204   0.670E+00    0.400E+01
RMM:   9    -0.180370339872E+04   -0.10248E+03   -0.62158E+01  5102   0.733E+00    0.365E+01
RMM:  10    -0.191463435910E+04   -0.11093E+03   -0.52288E+01  5343   0.682E+00    0.215E+01
RMM:  11    -0.202682752917E+04   -0.11219E+03   -0.47118E+01  4799   0.548E+00    0.155E+01
RMM:  12    -0.212104108721E+04   -0.94214E+02   -0.48235E+01  4567   0.546E+00    0.141E+01
RMM:  13    -0.218884897393E+04   -0.67808E+02   -0.38967E+01  4843   0.494E+00    0.929E+00
RMM:  14    -0.227431685609E+04   -0.85468E+02   -0.79713E+01  4407   0.615E+00    0.127E+01
RMM:  15    -0.228693158846E+04   -0.12615E+02   -0.13476E+01  4443   0.371E+00    0.744E+00
RMM:  16    -0.229676644889E+04   -0.98349E+01   -0.11178E+01  4386   0.193E+00    0.435E+00
RMM:  17    -0.229998781760E+04   -0.32214E+01   -0.26892E+00  4601   0.153E+00    0.362E+00
RMM:  18    -0.230068528665E+04   -0.69747E+00   -0.85749E-01  5335   0.494E-01    0.221E+00
RMM:  19    -0.230178405162E+04   -0.10988E+01   -0.77726E-01  4499   0.481E-01    0.159E+00
RMM:  20    -0.230213109944E+04   -0.34705E+00   -0.31410E-01  4644   0.319E-01    0.953E-01
RMM:  21    -0.230230546304E+04   -0.17436E+00   -0.16298E-01  4590   0.213E-01    0.476E-01
RMM:  22    -0.230241120676E+04   -0.10574E+00   -0.46061E-02  4708   0.129E-01    0.367E-01
RMM:  23    -0.230248681350E+04   -0.75607E-01   -0.24024E-02  4498   0.873E-02    0.304E-01
RMM:  24    -0.230252035692E+04   -0.33543E-01   -0.79715E-03  4596   0.660E-02    0.147E-01
RMM:  25    -0.230254109534E+04   -0.20738E-01   -0.45316E-03  4563   0.444E-02    0.102E-01
RMM:  26    -0.230255231937E+04   -0.11224E-01   -0.20847E-03  4528   0.353E-02    0.777E-02
RMM:  27    -0.230256019463E+04   -0.78753E-02   -0.17339E-03  4435   0.282E-02    0.596E-02
RMM:  28    -0.230256308072E+04   -0.28861E-02   -0.82273E-04  4267   0.231E-02    0.289E-02
RMM:  29    -0.230256371750E+04   -0.63678E-03   -0.22140E-04  4082   0.105E-02    0.177E-02
RMM:  30    -0.230256424029E+04   -0.52279E-03   -0.10540E-04  3582   0.807E-03    0.122E-02
RMM:  31    -0.230256441317E+04   -0.17288E-03   -0.44197E-05  3288   0.593E-03    0.428E-03
RMM:  32    -0.230256448169E+04   -0.68517E-04   -0.18640E-05  2923   0.429E-03    0.279E-03
RMM:  33    -0.230256450406E+04   -0.22373E-04   -0.85888E-06  2808   0.338E-03    0.252E-03
RMM:  34    -0.230256451173E+04   -0.76680E-05   -0.42642E-06  2443   0.248E-03
   1 F= -.23229310E+04 E0= -.23229310E+04  d E =-.232293E+04  mag=     2.9999
       N       E                     dE             d eps       ncg     rms          rms(c)
DAV:   1    -0.230376746695E+04   -0.12030E+01   -0.22459E+01  4776   0.295E+00    0.139E+00
RMM:   2    -0.230389488020E+04   -0.12741E+00   -0.14949E+00  5853   0.667E-01    0.957E-01
RMM:   3    -0.230390293719E+04   -0.80570E-02   -0.14844E-01  5668   0.200E-01    0.107E+00
RMM:   4    -0.230389675695E+04    0.61802E-02   -0.30257E-02  5822   0.713E-02    0.689E-01
RMM:   5    -0.230389262794E+04    0.41290E-02   -0.12523E-02  5614   0.534E-02    0.195E-01
RMM:   6    -0.230389253964E+04    0.88300E-04   -0.19125E-03  5131   0.187E-02    0.665E-02
RMM:   7    -0.230389262423E+04   -0.84596E-04   -0.29060E-04  3967   0.956E-03    0.320E-02
RMM:   8    -0.230389272237E+04   -0.98137E-04   -0.87646E-05  3375   0.644E-03    0.181E-02
RMM:   9    -0.230389279872E+04   -0.76356E-04   -0.29921E-05  2993   0.477E-03    0.888E-03
RMM:  10    -0.230389287069E+04   -0.71970E-04   -0.18323E-05  2877   0.419E-03    0.566E-03
RMM:  11    -0.230389293666E+04   -0.65964E-04   -0.16760E-05  2884   0.383E-03    0.377E-03
RMM:  12    -0.230389298013E+04   -0.43476E-04   -0.11648E-05  2824   0.357E-03    0.210E-03
RMM:  13    -0.230389300256E+04   -0.22423E-04   -0.86014E-06  2759   0.306E-03    0.204E-03
RMM:  14    -0.230389300956E+04   -0.69988E-05   -0.41450E-06  2534   0.253E-03
   2 F= -.23242622E+04 E0= -.23242622E+04  d E =-.133115E+01  mag=     3.0000
       N       E                     dE             d eps       ncg     rms          rms(c)
DAV:   1    -0.230433701247E+04   -0.44401E+00   -0.35542E+01  4512   0.394E+00    0.164E+00
RMM:   2    -0.230453171480E+04   -0.19470E+00   -0.23634E+00  5896   0.791E-01    0.110E+00
RMM:   3    -0.230453743587E+04   -0.57211E-02   -0.22408E-01  5619   0.245E-01    0.992E-01
RMM:   4    -0.230453776633E+04   -0.33047E-03   -0.44931E-02  5841   0.848E-02    0.104E+00
RMM:   5    -0.230452749913E+04    0.10267E-01   -0.18856E-02  5543   0.656E-02    0.254E-01
RMM:   6    -0.230452737323E+04    0.12590E-03   -0.28918E-03  5227   0.233E-02    0.850E-02
RMM:   7    -0.230452752905E+04   -0.15582E-03   -0.34539E-04  4199   0.116E-02    0.436E-02
RMM:   8    -0.230452773545E+04   -0.20640E-03   -0.15024E-04  3800   0.769E-03    0.219E-02
RMM:   9    -0.230452790454E+04   -0.16909E-03   -0.55153E-05  3347   0.603E-03    0.116E-02
RMM:  10    -0.230452804716E+04   -0.14262E-03   -0.32198E-05  3084   0.494E-03    0.725E-03
RMM:  11    -0.230452819568E+04   -0.14852E-03   -0.34952E-05  3200   0.476E-03    0.431E-03
RMM:  12    -0.230452829023E+04   -0.94550E-04   -0.22910E-05  2980   0.439E-03    0.262E-03
RMM:  13    -0.230452833612E+04   -0.45895E-04   -0.14455E-05  2862   0.365E-03    0.235E-03
RMM:  14    -0.230452835146E+04   -0.15337E-04   -0.63399E-06  2671   0.299E-03    0.129E-03
RMM:  15    -0.230452835730E+04   -0.58375E-05   -0.35732E-06  2455   0.212E-03
   3 F= -.23249018E+04 E0= -.23249018E+04  d E =-.197078E+01  mag=     3.0000
       N       E                     dE             d eps       ncg     rms          rms(c)
DAV:   1    -0.230492087347E+04   -0.39252E+00   -0.40288E+01  4512   0.529E+00    0.195E+00
RMM:   2    -0.230522862123E+04   -0.30775E+00   -0.34018E+00  5912   0.109E+00    0.128E+00
RMM:   3    -0.230524983021E+04   -0.21209E-01   -0.31540E-01  5715   0.320E-01    0.146E+00
RMM:   4    -0.230522989730E+04    0.19933E-01   -0.40655E-02  5955   0.988E-02    0.555E-01
RMM:   5    -0.230522484809E+04    0.50492E-02   -0.18396E-02  5253   0.808E-02    0.242E-01
RMM:   6    -0.230522423396E+04    0.61413E-03   -0.35874E-03  5367   0.452E-02    0.138E-01
RMM:   7    -0.230522396959E+04    0.26437E-03   -0.77707E-04  4961   0.179E-02    0.518E-02
RMM:   8    -0.230522388330E+04    0.86294E-04   -0.22856E-04  4499   0.121E-02    0.255E-02
RMM:   9    -0.230522385473E+04    0.28567E-04   -0.13904E-04  4220   0.942E-03    0.131E-02
RMM:  10    -0.230522385505E+04   -0.31234E-06   -0.34999E-05  3309   0.642E-03
   4 F= -.23255988E+04 E0= -.23255988E+04  d E =-.696950E+00  mag=     3.0000
       N       E                     dE             d eps       ncg     rms          rms(c)
DAV:   1    -0.230524255090E+04   -0.18696E-01   -0.68983E+00  4560   0.214E+00    0.792E-01
RMM:   2    -0.230529244343E+04   -0.49893E-01   -0.56526E-01  5898   0.423E-01    0.471E-01
RMM:   3    -0.230529592014E+04   -0.34767E-02   -0.52726E-02  5635   0.140E-01    0.516E-01
RMM:   4    -0.230529361686E+04    0.23033E-02   -0.68583E-03  5828   0.404E-02    0.247E-01
RMM:   5    -0.230529271313E+04    0.90373E-03   -0.30080E-03  5273   0.336E-02    0.985E-02
RMM:   6    -0.230529262313E+04    0.90002E-04   -0.52352E-04  4821   0.183E-02    0.462E-02
RMM:   7    -0.230529258815E+04    0.34977E-04   -0.99700E-05  3698   0.728E-03    0.188E-02
RMM:   8    -0.230529257641E+04    0.11736E-04   -0.48103E-05  3329   0.667E-03    0.101E-02
RMM:   9    -0.230529257595E+04    0.46898E-06   -0.21671E-05  3009   0.493E-03
   5 F= -.23256682E+04 E0= -.23256682E+04  d E =-.766383E+00  mag=     3.0000
       N       E                     dE             d eps       ncg     rms          rms(c)
DAV:   1    -0.230525454611E+04    0.38030E-01   -0.38429E+01  4456   0.609E+00    0.255E+00
RMM:   2    -0.230549828963E+04   -0.24374E+00   -0.27851E+00  5827   0.117E+00    0.148E+00
RMM:   3    -0.230551544658E+04   -0.17157E-01   -0.27619E-01  5597   0.396E-01    0.196E+00
RMM:   4    -0.230547325112E+04    0.42195E-01   -0.48832E-02  5798   0.133E-01    0.500E-01
RMM:   5    -0.230546750181E+04    0.57493E-02   -0.19883E-02  5048   0.993E-02    0.226E-01
RMM:   6    -0.230546609729E+04    0.14045E-02   -0.49930E-03  5346   0.555E-02    0.144E-01
RMM:   7    -0.230546553776E+04    0.55953E-03   -0.12514E-03  5237   0.273E-02    0.583E-02
RMM:   8    -0.230546538018E+04    0.15758E-03   -0.36708E-04  4751   0.150E-02    0.294E-02
RMM:   9    -0.230546541070E+04   -0.30523E-04   -0.22291E-04  4545   0.129E-02    0.166E-02
RMM:  10    -0.230546551261E+04   -0.10191E-03   -0.73592E-05  4003   0.763E-03    0.123E-02
RMM:  11    -0.230546566489E+04   -0.15228E-03   -0.74312E-05  3707   0.677E-03    0.671E-03
RMM:  12    -0.230546573731E+04   -0.72424E-04   -0.21487E-05  2979   0.564E-03    0.377E-03
RMM:  13    -0.230546577070E+04   -0.33391E-04   -0.10953E-05  2827   0.360E-03    0.208E-03
RMM:  14    -0.230546579106E+04   -0.20351E-04   -0.64168E-06  2797   0.300E-03    0.142E-03
RMM:  15    -0.230546579509E+04   -0.40356E-05   -0.29254E-06  2597   0.221E-03
   6 F= -.23258435E+04 E0= -.23258435E+04  d E =-.175344E+00  mag=     3.0000
       N       E                     dE             d eps       ncg     rms          rms(c)
DAV:   1    -0.230547264709E+04   -0.68560E-02   -0.20744E+00  4624   0.140E+00    0.591E-01
RMM:   2    -0.230548510708E+04   -0.12460E-01   -0.14563E-01  5816   0.259E-01    0.296E-01
RMM:   3    -0.230548623087E+04   -0.11238E-02   -0.13092E-02  5561   0.895E-02    0.433E-01
RMM:   4    -0.230548418275E+04    0.20481E-02   -0.25221E-03  5541   0.300E-02    0.117E-01
RMM:   5    -0.230548384672E+04    0.33604E-03   -0.10294E-03  4864   0.238E-02    0.432E-02
RMM:   6    -0.230548378576E+04    0.60954E-04   -0.21034E-04  4530   0.134E-02    0.246E-02
RMM:   7    -0.230548375606E+04    0.29701E-04   -0.47933E-05  3534   0.678E-03    0.118E-02
RMM:   8    -0.230548373800E+04    0.18060E-04   -0.30698E-05  3178   0.563E-03    0.633E-03
RMM:   9    -0.230548373656E+04    0.14430E-05   -0.93468E-06  2804   0.418E-03
   7 F= -.23258610E+04 E0= -.23258610E+04  d E =-.192794E+00  mag=     3.0000
       N       E                     dE             d eps       ncg     rms          rms(c)
DAV:   1    -0.230535225235E+04    0.13149E+00   -0.14108E+01  4432   0.264E+00    0.121E+00
RMM:   2    -0.230560754562E+04   -0.25529E+00   -0.26385E+00  6153   0.634E-01    0.125E+00
RMM:   3    -0.230561704634E+04   -0.95007E-02   -0.28512E-01  6007   0.223E-01    0.860E-01
RMM:   4    -0.230561263131E+04    0.44150E-02   -0.28482E-02  5681   0.515E-02    0.382E-01
RMM:   5    -0.230561067975E+04    0.19516E-02   -0.60225E-03  5449   0.345E-02    0.203E-01
RMM:   6    -0.230561061237E+04    0.67378E-04   -0.33198E-03  4915   0.257E-02    0.127E-01
RMM:   7    -0.230561044735E+04    0.16503E-03   -0.47918E-04  4196   0.158E-02    0.566E-02
RMM:   8    -0.230561040598E+04    0.41370E-04   -0.13901E-04  3234   0.622E-03    0.180E-02
RMM:   9    -0.230561041072E+04   -0.47453E-05   -0.46072E-05  2910   0.456E-03
   8 F= -.23259898E+04 E0= -.23259898E+04  d E =-.128806E+00  mag=     3.0000
       N       E                     dE             d eps       ncg     rms          rms(c)
DAV:   1    -0.230560370287E+04    0.67031E-02   -0.54511E-01  4744   0.520E-01    0.235E-01
RMM:   2    -0.230561335798E+04   -0.96551E-02   -0.10035E-01  6187   0.120E-01    0.224E-01
RMM:   3    -0.230561389298E+04   -0.53499E-03   -0.10291E-02  5246   0.441E-02    0.173E-01
RMM:   4    -0.230561369608E+04    0.19690E-03   -0.11334E-03  3499   0.106E-02    0.742E-02
RMM:   5    -0.230561362340E+04    0.72679E-04   -0.21356E-04  3420   0.756E-03    0.409E-02
RMM:   6    -0.230561362210E+04    0.12912E-05   -0.13583E-04  3391   0.685E-03    0.257E-02
RMM:   7    -0.230561361780E+04    0.43029E-05   -0.20898E-05  2828   0.526E-03
   9 F= -.23259934E+04 E0= -.23259934E+04  d E =-.132449E+00  mag=     3.0000
       N       E                     dE             d eps       ncg     rms          rms(c)
DAV:   1    -0.230543793001E+04    0.17569E+00   -0.11122E+01  4504   0.273E+00    0.129E+00
RMM:   2    -0.230568595859E+04   -0.24803E+00   -0.25107E+00  6006   0.694E-01    0.136E+00
RMM:   3    -0.230568898100E+04   -0.30224E-02   -0.24490E-01  5889   0.240E-01    0.911E-01
RMM:   4    -0.230568305535E+04    0.59257E-02   -0.27890E-02  5734   0.602E-02    0.352E-01
RMM:   5    -0.230568091744E+04    0.21379E-02   -0.56116E-03  5486   0.412E-02    0.180E-01
RMM:   6    -0.230568069620E+04    0.22124E-03   -0.21871E-03  5096   0.293E-02    0.111E-01
RMM:   7    -0.230568054113E+04    0.15507E-03   -0.46806E-04  4501   0.166E-02    0.427E-02
RMM:   8    -0.230568049074E+04    0.50382E-04   -0.10642E-04  3461   0.687E-03    0.162E-02
RMM:   9    -0.230568047091E+04    0.19834E-04   -0.39264E-05  2985   0.550E-03    0.814E-03
RMM:  10    -0.230568046425E+04    0.66565E-05   -0.17542E-05  2888   0.462E-03
  10 F= -.23260622E+04 E0= -.23260622E+04  d E =-.687993E-01  mag=     3.0000
       N       E                     dE             d eps       ncg     rms          rms(c)
DAV:   1    -0.230567236652E+04    0.81044E-02   -0.44157E-01  5056   0.547E-01    0.255E-01
RMM:   2    -0.230568204641E+04   -0.96799E-02   -0.99534E-02  6060   0.136E-01    0.240E-01
RMM:   3    -0.230568239576E+04   -0.34935E-03   -0.84845E-03  5613   0.485E-02    0.198E-01
RMM:   4    -0.230568208146E+04    0.31430E-03   -0.11106E-03  4333   0.126E-02    0.700E-02
RMM:   5    -0.230568199425E+04    0.87205E-04   -0.22659E-04  4161   0.910E-03    0.364E-02
RMM:   6    -0.230568198206E+04    0.12190E-04   -0.92121E-05  3751   0.761E-03    0.208E-02
RMM:   7    -0.230568197630E+04    0.57607E-05   -0.18328E-05  2829   0.550E-03
  11 F= -.23260641E+04 E0= -.23260641E+04  d E =-.707005E-01  mag=     3.0000
       N       E                     dE             d eps       ncg     rms          rms(c)
DAV:   1    -0.230545504381E+04    0.22694E+00   -0.12818E+01  4464   0.299E+00    0.137E+00
RMM:   2    -0.230571665745E+04   -0.26161E+00   -0.26493E+00  6002   0.764E-01    0.136E+00
RMM:   3    -0.230571911032E+04   -0.24529E-02   -0.24170E-01  5865   0.251E-01    0.991E-01
RMM:   4    -0.230571100435E+04    0.81060E-02   -0.29941E-02  5705   0.668E-02    0.363E-01
RMM:   5    -0.230570852290E+04    0.24815E-02   -0.72394E-03  5395   0.480E-02    0.172E-01
RMM:   6    -0.230570826142E+04    0.26148E-03   -0.20143E-03  5163   0.311E-02    0.951E-02
RMM:   7    -0.230570813939E+04    0.12203E-03   -0.42352E-04  4513   0.148E-02    0.390E-02
RMM:   8    -0.230570809910E+04    0.40296E-04   -0.83761E-05  3627   0.702E-03    0.164E-02
RMM:   9    -0.230570808452E+04    0.14580E-04   -0.39292E-05  3157   0.570E-03    0.785E-03
RMM:  10    -0.230570808301E+04    0.15030E-05   -0.14643E-05  2857   0.466E-03
  12 F= -.23260924E+04 E0= -.23260924E+04  d E =-.282409E-01  mag=     3.0000
       N       E                     dE             d eps       ncg     rms          rms(c)
DAV:   1    -0.230569441019E+04    0.13674E-01   -0.92420E-01  4544   0.817E-01    0.369E-01
RMM:   2    -0.230571348496E+04   -0.19075E-01   -0.19691E-01  6020   0.200E-01    0.310E-01
RMM:   3    -0.230571431511E+04   -0.83015E-03   -0.15092E-02  5776   0.669E-02    0.309E-01
RMM:   4    -0.230571343636E+04    0.87875E-03   -0.21915E-03  5104   0.187E-02    0.988E-02
RMM:   5    -0.230571325245E+04    0.18390E-03   -0.51287E-04  4649   0.131E-02    0.483E-02
RMM:   6    -0.230571323128E+04    0.21174E-04   -0.15038E-04  4181   0.102E-02    0.145E-02
RMM:   7    -0.230571322689E+04    0.43918E-05   -0.22255E-05  2900   0.519E-03
  13 F= -.23260970E+04 E0= -.23260970E+04  d E =-.328128E-01  mag=     3.0000
       N       E                     dE             d eps       ncg     rms          rms(c)
DAV:   1    -0.230570016673E+04    0.13065E-01   -0.14812E+00  4432   0.106E+00    0.406E-01
RMM:   2    -0.230571813833E+04   -0.17972E-01   -0.19046E-01  5926   0.226E-01    0.256E-01
RMM:   3    -0.230571934039E+04   -0.12021E-02   -0.18496E-02  5626   0.798E-02    0.292E-01
RMM:   4    -0.230571864834E+04    0.69205E-03   -0.24352E-03  5216   0.214E-02    0.129E-01
RMM:   5    -0.230571838271E+04    0.26563E-03   -0.99054E-04  4937   0.181E-02    0.491E-02
RMM:   6    -0.230571836232E+04    0.20392E-04   -0.15381E-04  3956   0.117E-02    0.225E-02
RMM:   7    -0.230571835350E+04    0.88179E-05   -0.31310E-05  2947   0.474E-03
  14 F= -.23261027E+04 E0= -.23261027E+04  d E =-.571520E-02  mag=     3.0000
       N       E                     dE             d eps       ncg     rms          rms(c)
DAV:   1    -0.230571810111E+04    0.26120E-03   -0.10525E-01  4544   0.282E-01    0.108E-01
RMM:   2    -0.230571937897E+04   -0.12779E-02   -0.13644E-02  5969   0.607E-02    0.625E-02
RMM:   3    -0.230571944720E+04   -0.68236E-04   -0.11458E-03  4140   0.230E-02    0.706E-02
RMM:   4    -0.230571940982E+04    0.37380E-04   -0.16461E-04  2982   0.665E-03    0.362E-02
RMM:   5    -0.230571938963E+04    0.20198E-04   -0.66231E-05  3230   0.552E-03    0.119E-02
RMM:   6    -0.230571938931E+04    0.31680E-06   -0.96991E-06  2843   0.466E-03
  15 F= -.23261035E+04 E0= -.23261035E+04  d E =-.659375E-02  mag=     3.0000
       N       E                     dE             d eps       ncg     rms          rms(c)
DAV:   1    -0.230571862688E+04    0.76274E-03   -0.34219E-01  4432   0.551E-01    0.209E-01
RMM:   2    -0.230572274412E+04   -0.41172E-02   -0.45226E-02  5835   0.109E-01    0.961E-02
RMM:   3    -0.230572299583E+04   -0.25171E-03   -0.40418E-03  5092   0.414E-02    0.657E-02
RMM:   4    -0.230572299934E+04   -0.35175E-05   -0.49618E-04  3870   0.106E-02    0.672E-02
RMM:   5    -0.230572296419E+04    0.35155E-04   -0.15664E-04  3489   0.903E-03    0.448E-02
RMM:   6    -0.230572294275E+04    0.21440E-04   -0.50872E-05  3232   0.620E-03    0.109E-02
RMM:   7    -0.230572294107E+04    0.16753E-05   -0.83828E-06  2818   0.468E-03
  16 F= -.23261072E+04 E0= -.23261072E+04  d E =-.367584E-02  mag=     3.0000
       N       E                     dE             d eps       ncg     rms          rms(c)
DAV:   1    -0.230572005712E+04    0.28856E-02   -0.30680E-01  4448   0.522E-01    0.198E-01
RMM:   2    -0.230572376669E+04   -0.37096E-02   -0.40742E-02  5816   0.104E-01    0.918E-02
RMM:   3    -0.230572399527E+04   -0.22857E-03   -0.36501E-03  5070   0.378E-02    0.639E-02
RMM:   4    -0.230572400011E+04   -0.48405E-05   -0.45617E-04  3734   0.100E-02    0.656E-02
RMM:   5    -0.230572396307E+04    0.37032E-04   -0.14335E-04  3440   0.864E-03    0.413E-02
RMM:   6    -0.230572394447E+04    0.18601E-04   -0.47860E-05  3225   0.611E-03    0.105E-02
RMM:   7    -0.230572394287E+04    0.16055E-05   -0.80350E-06  2814   0.461E-03
  17 F= -.23261083E+04 E0= -.23261083E+04  d E =-.479343E-02  mag=     3.0000
       N       E                     dE             d eps       ncg     rms          rms(c)
DAV:   1    -0.230572478342E+04   -0.83895E-03   -0.72715E-02  4560   0.226E-01    0.849E-02
RMM:   2    -0.230572596020E+04   -0.11768E-02   -0.12641E-02  5878   0.473E-02    0.562E-02
RMM:   3    -0.230572605842E+04   -0.98222E-04   -0.11582E-03  3246   0.174E-02    0.504E-02
RMM:   4    -0.230572604689E+04    0.11533E-04   -0.13534E-04  2883   0.504E-03    0.291E-02
RMM:   5    -0.230572603879E+04    0.80976E-05   -0.21726E-05  2830   0.315E-03
  18 F= -.23261104E+04 E0= -.23261104E+04  d E =-.210820E-02  mag=     3.0000
       N       E                     dE             d eps       ncg     rms          rms(c)
DAV:   1    -0.230571946060E+04    0.65863E-02   -0.65056E-01  4432   0.677E-01    0.254E-01
RMM:   2    -0.230572988493E+04   -0.10424E-01   -0.11282E-01  5946   0.141E-01    0.156E-01
RMM:   3    -0.230573076711E+04   -0.88218E-03   -0.10588E-02  5458   0.492E-02    0.125E-01
RMM:   4    -0.230573074282E+04    0.24295E-04   -0.11837E-03  3400   0.111E-02    0.906E-02
RMM:   5    -0.230573067093E+04    0.71883E-04   -0.20037E-04  3252   0.825E-03    0.563E-02
RMM:   6    -0.230573065316E+04    0.17775E-04   -0.16581E-04  4035   0.789E-03    0.278E-02
RMM:   7    -0.230573064443E+04    0.87320E-05   -0.19810E-05  2826   0.555E-03
  19 F= -.23261151E+04 E0= -.23261151E+04  d E =-.674937E-02  mag=     3.0000
       N       E                     dE             d eps       ncg     rms          rms(c)
DAV:   1    -0.230568726775E+04    0.43385E-01   -0.26177E+00  4392   0.136E+00    0.513E-01
RMM:   2    -0.230572943503E+04   -0.42167E-01   -0.45322E-01  5967   0.283E-01    0.351E-01
RMM:   3    -0.230573303380E+04   -0.35988E-02   -0.44507E-02  5776   0.101E-01    0.290E-01
RMM:   4    -0.230573268201E+04    0.35179E-03   -0.48146E-03  5202   0.225E-02    0.179E-01
RMM:   5    -0.230573239297E+04    0.28904E-03   -0.77476E-04  4452   0.146E-02    0.112E-01
RMM:   6    -0.230573231334E+04    0.79632E-04   -0.66942E-04  4941   0.140E-02    0.535E-02
RMM:   7    -0.230573228140E+04    0.31940E-04   -0.82919E-05  2971   0.906E-03    0.225E-02
RMM:   8    -0.230573227168E+04    0.97121E-05   -0.25977E-05  2851   0.350E-03
  20 F= -.23261168E+04 E0= -.23261168E+04  d E =-.844218E-02  mag=     3.0000
       N       E                     dE             d eps       ncg     rms          rms(c)
DAV:   1    -0.230572789312E+04    0.43883E-02   -0.28917E-01  4432   0.450E-01    0.167E-01
RMM:   2    -0.230573254123E+04   -0.46481E-02   -0.50108E-02  5975   0.940E-02    0.103E-01
RMM:   3    -0.230573292152E+04   -0.38029E-03   -0.43753E-03  4632   0.320E-02    0.947E-02
RMM:   4    -0.230573288554E+04    0.35981E-04   -0.51013E-04  3037   0.812E-03    0.579E-02
RMM:   5    -0.230573285041E+04    0.35129E-04   -0.87783E-05  3027   0.595E-03    0.321E-02
RMM:   6    -0.230573284695E+04    0.34532E-05   -0.57315E-05  3140   0.551E-03
  21 F= -.23261173E+04 E0= -.23261173E+04  d E =-.899641E-02  mag=     3.0000
       N       E                     dE             d eps       ncg     rms          rms(c)
DAV:   1    -0.230572920657E+04    0.36438E-02   -0.36473E-01  4464   0.519E-01    0.210E-01
RMM:   2    -0.230573627210E+04   -0.70655E-02   -0.73937E-02  6142   0.117E-01    0.175E-01
RMM:   3    -0.230573673803E+04   -0.46593E-03   -0.69005E-03  5451   0.423E-02    0.144E-01
RMM:   4    -0.230573658578E+04    0.15226E-03   -0.75784E-04  3352   0.103E-02    0.651E-02
RMM:   5    -0.230573653442E+04    0.51365E-04   -0.11041E-04  3070   0.699E-03    0.369E-02
RMM:   6    -0.230573652707E+04    0.73460E-05   -0.94927E-05  3520   0.699E-03
  22 F= -.23261209E+04 E0= -.23261209E+04  d E =-.358682E-02  mag=     3.0000
       N       E                     dE             d eps       ncg     rms          rms(c)
DAV:   1    -0.230570395275E+04    0.32582E-01   -0.17653E+00  4396   0.114E+00    0.471E-01
RMM:   2    -0.230573839890E+04   -0.34446E-01   -0.36122E-01  5937   0.254E-01    0.409E-01
RMM:   3    -0.230574060229E+04   -0.22034E-02   -0.35469E-02  5782   0.917E-02    0.324E-01
RMM:   4    -0.230573983836E+04    0.76393E-03   -0.37626E-03  5155   0.219E-02    0.142E-01
RMM:   5    -0.230573961483E+04    0.22353E-03   -0.55945E-04  4433   0.134E-02    0.804E-02
RMM:   6    -0.230573957930E+04    0.35533E-04   -0.39934E-04  4635   0.124E-02    0.355E-02
RMM:   7    -0.230573956705E+04    0.12249E-04   -0.48732E-05  2874   0.802E-03    0.179E-02
RMM:   8    -0.230573956181E+04    0.52415E-05   -0.14644E-05  2826   0.318E-03
  23 F= -.23261238E+04 E0= -.23261238E+04  d E =-.641428E-02  mag=     3.0000
       N       E                     dE             d eps       ncg     rms          rms(c)
DAV:   1    -0.230572776796E+04    0.11799E-01   -0.67635E-01  4520   0.663E-01    0.296E-01
RMM:   2    -0.230574299661E+04   -0.15229E-01   -0.15690E-01  6022   0.159E-01    0.288E-01
RMM:   3    -0.230574364645E+04   -0.64985E-03   -0.14741E-02  5671   0.575E-02    0.197E-01
RMM:   4    -0.230574337803E+04    0.26842E-03   -0.16015E-03  3845   0.136E-02    0.867E-02
RMM:   5    -0.230574328709E+04    0.90939E-04   -0.17412E-04  3322   0.805E-03    0.498E-02
RMM:   6    -0.230574327628E+04    0.10816E-04   -0.15935E-04  3861   0.836E-03    0.230E-02
RMM:   7    -0.230574327220E+04    0.40761E-05   -0.18062E-05  2842   0.548E-03
  24 F= -.23261273E+04 E0= -.23261273E+04  d E =-.354619E-02  mag=     3.0000
       N       E                     dE             d eps       ncg     rms          rms(c)
DAV:   1    -0.230572075228E+04    0.22524E-01   -0.10538E+00  4432   0.828E-01    0.370E-01
RMM:   2    -0.230574443728E+04   -0.23685E-01   -0.24488E-01  6008   0.199E-01    0.351E-01
RMM:   3    -0.230574554381E+04   -0.11065E-02   -0.23429E-02  5724   0.738E-02    0.243E-01
RMM:   4    -0.230574514773E+04    0.39608E-03   -0.25006E-03  4476   0.168E-02    0.109E-01
RMM:   5    -0.230574500810E+04    0.13963E-03   -0.27148E-04  3653   0.965E-03    0.635E-02
RMM:   6    -0.230574498706E+04    0.21040E-04   -0.25438E-04  4244   0.994E-03    0.305E-02
RMM:   7    -0.230574497936E+04    0.76934E-05   -0.28876E-05  2851   0.642E-03
  25 F= -.23261288E+04 E0= -.23261288E+04  d E =-.504907E-02  mag=     3.0000
       N       E                     dE             d eps       ncg     rms          rms(c)
DAV:   1    -0.230574026479E+04    0.47223E-02   -0.33129E-01  4480   0.487E-01    0.216E-01
RMM:   2    -0.230574717641E+04   -0.69116E-02   -0.70981E-02  5996   0.117E-01    0.211E-01
RMM:   3    -0.230574738578E+04   -0.20937E-03   -0.64700E-03  5405   0.414E-02    0.144E-01
RMM:   4    -0.230574722434E+04    0.16144E-03   -0.75050E-04  3531   0.105E-02    0.570E-02
RMM:   5    -0.230574718187E+04    0.42469E-04   -0.95235E-05  3119   0.680E-03    0.315E-02
RMM:   6    -0.230574717667E+04    0.52043E-05   -0.66328E-05  3320   0.678E-03
  26 F= -.23261310E+04 E0= -.23261310E+04  d E =-.218516E-02  mag=     3.0000
       N       E                     dE             d eps       ncg     rms          rms(c)
DAV:   1    -0.230573773765E+04    0.94442E-02   -0.46256E-01  4400   0.575E-01    0.256E-01
RMM:   2    -0.230574746244E+04   -0.97248E-02   -0.99386E-02  6003   0.138E-01    0.258E-01
RMM:   3    -0.230574770927E+04   -0.24683E-03   -0.92195E-03  5648   0.500E-02    0.170E-01
RMM:   4    -0.230574747785E+04    0.23142E-03   -0.10526E-03  3919   0.123E-02    0.670E-02
RMM:   5    -0.230574741900E+04    0.58847E-04   -0.13817E-04  3431   0.774E-03    0.368E-02
RMM:   6    -0.230574741022E+04    0.87812E-05   -0.81441E-05  3526   0.757E-03
  27 F= -.23261312E+04 E0= -.23261312E+04  d E =-.240587E-02  mag=     3.0000
       N       E                     dE             d eps       ncg     rms          rms(c)
DAV:   1    -0.230574622157E+04    0.11974E-02   -0.67787E-02  4544   0.220E-01    0.947E-02
RMM:   2    -0.230574761786E+04   -0.13963E-02   -0.14243E-02  6246   0.546E-02    0.900E-02
RMM:   3    -0.230574767268E+04   -0.54821E-04   -0.13448E-03  3615   0.189E-02    0.635E-02
RMM:   4    -0.230574763909E+04    0.33589E-04   -0.14864E-04  2910   0.598E-03    0.265E-02
RMM:   5    -0.230574762832E+04    0.10775E-04   -0.24612E-05  2840   0.388E-03    0.140E-02
RMM:   6    -0.230574762754E+04    0.78278E-06   -0.15272E-05  2839   0.361E-03
  28 F= -.23261314E+04 E0= -.23261314E+04  d E =-.262788E-02  mag=     3.0000
       N       E                     dE             d eps       ncg     rms          rms(c)
DAV:   1    -0.230574120957E+04    0.64187E-02   -0.38147E-01  4416   0.516E-01    0.230E-01
RMM:   2    -0.230574981547E+04   -0.86059E-02   -0.85968E-02  6147   0.126E-01    0.252E-01
RMM:   3    -0.230574992915E+04   -0.11367E-03   -0.78874E-03  5473   0.440E-02    0.141E-01
RMM:   4    -0.230574979477E+04    0.13438E-03   -0.90817E-04  3453   0.106E-02    0.582E-02
RMM:   5    -0.230574974815E+04    0.46624E-04   -0.78025E-05  3002   0.634E-03    0.347E-02
RMM:   6    -0.230574973959E+04    0.85520E-05   -0.80937E-05  3295   0.669E-03
  29 F= -.23261336E+04 E0= -.23261336E+04  d E =-.221935E-02  mag=     3.0000
       N       E                     dE             d eps       ncg     rms          rms(c)
DAV:   1    -0.230571927053E+04    0.30478E-01   -0.14070E+00  4392   0.991E-01    0.448E-01
RMM:   2    -0.230575128141E+04   -0.32011E-01   -0.31971E-01  6058   0.242E-01    0.500E-01
RMM:   3    -0.230575163473E+04   -0.35331E-03   -0.30618E-02  5853   0.851E-02    0.272E-01
RMM:   4    -0.230575111356E+04    0.52117E-03   -0.33821E-03  4954   0.198E-02    0.112E-01
RMM:   5    -0.230575095386E+04    0.15970E-03   -0.29372E-04  4042   0.107E-02    0.667E-02
RMM:   6    -0.230575092369E+04    0.30176E-04   -0.26115E-04  4260   0.110E-02    0.221E-02
RMM:   7    -0.230575092074E+04    0.29410E-05   -0.30028E-05  2865   0.648E-03
  30 F= -.23261350E+04 E0= -.23261350E+04  d E =-.361449E-02  mag=     3.0000
       N       E                     dE             d eps       ncg     rms          rms(c)
DAV:   1    -0.230574683913E+04    0.40846E-02   -0.25871E-01  4432   0.421E-01    0.186E-01
RMM:   2    -0.230575252607E+04   -0.56869E-02   -0.57196E-02  6042   0.102E-01    0.190E-01
RMM:   3    -0.230575269509E+04   -0.16903E-03   -0.52559E-03  5114   0.365E-02    0.118E-01
RMM:   4    -0.230575260853E+04    0.86562E-04   -0.62463E-04  3222   0.897E-03    0.484E-02
RMM:   5    -0.230575258010E+04    0.28434E-04   -0.53346E-05  2900   0.541E-03    0.278E-02
RMM:   6    -0.230575257729E+04    0.28112E-05   -0.53108E-05  3121   0.539E-03
  31 F= -.23261368E+04 E0= -.23261368E+04  d E =-.175561E-02  mag=     3.0000
       N       E                     dE             d eps       ncg     rms          rms(c)
DAV:   1    -0.230572685773E+04    0.25722E-01   -0.12141E+00  4392   0.913E-01    0.407E-01
RMM:   2    -0.230575385359E+04   -0.26996E-01   -0.26889E-01  5956   0.219E-01    0.446E-01
RMM:   3    -0.230575430913E+04   -0.45555E-03   -0.25901E-02  5757   0.754E-02    0.248E-01
RMM:   4    -0.230575385741E+04    0.45172E-03   -0.28534E-03  4834   0.180E-02    0.104E-01
RMM:   5    -0.230575371929E+04    0.13812E-03   -0.25291E-04  3846   0.100E-02    0.600E-02
RMM:   6    -0.230575369913E+04    0.20160E-04   -0.23286E-04  4192   0.103E-02    0.207E-02
RMM:   7    -0.230575369574E+04    0.33882E-05   -0.26526E-05  2858   0.592E-03
  32 F= -.23261381E+04 E0= -.23261381E+04  d E =-.309762E-02  mag=     3.0000
       N       E                     dE             d eps       ncg     rms          rms(c)
DAV:   1    -0.230575093391E+04    0.27652E-02   -0.20551E-01  4544   0.386E-01    0.170E-01
RMM:   2    -0.230575510954E+04   -0.41756E-02   -0.42660E-02  5964   0.906E-02    0.142E-01
RMM:   3    -0.230575535805E+04   -0.24851E-03   -0.39562E-03  4880   0.327E-02    0.115E-01
RMM:   4    -0.230575524831E+04    0.10974E-03   -0.47963E-04  3178   0.866E-03    0.435E-02
RMM:   5    -0.230575522780E+04    0.20514E-04   -0.53259E-05  2845   0.549E-03    0.237E-02
RMM:   6    -0.230575522607E+04    0.17297E-05   -0.42452E-05  3078   0.500E-03
  33 F= -.23261398E+04 E0= -.23261398E+04  d E =-.162488E-02  mag=     3.0000
       N       E                     dE             d eps       ncg     rms          rms(c)
DAV:   1    -0.230574139163E+04    0.13836E-01   -0.70948E-01  4396   0.717E-01    0.317E-01
RMM:   2    -0.230575593716E+04   -0.14546E-01   -0.14748E-01  5922   0.168E-01    0.286E-01
RMM:   3    -0.230575667315E+04   -0.73599E-03   -0.14139E-02  5715   0.580E-02    0.213E-01
RMM:   4    -0.230575627141E+04    0.40173E-03   -0.16386E-03  4497   0.150E-02    0.799E-02
RMM:   5    -0.230575619615E+04    0.75264E-04   -0.17756E-04  3339   0.890E-03    0.435E-02
RMM:   6    -0.230575618731E+04    0.88399E-05   -0.13706E-04  3950   0.830E-03    0.170E-02
RMM:   7    -0.230575618527E+04    0.20355E-05   -0.14558E-05  2841   0.543E-03
  34 F= -.23261409E+04 E0= -.23261409E+04  d E =-.276590E-02  mag=     3.0000
       N       E                     dE             d eps       ncg     rms          rms(c)
DAV:   1    -0.230575176775E+04    0.44196E-02   -0.29420E-01  4432   0.462E-01    0.203E-01
RMM:   2    -0.230575768778E+04   -0.59200E-02   -0.60588E-02  5926   0.109E-01    0.165E-01
RMM:   3    -0.230575806619E+04   -0.37841E-03   -0.56577E-03  5330   0.385E-02    0.138E-01
RMM:   4    -0.230575789545E+04    0.17074E-03   -0.69554E-04  3387   0.100E-02    0.534E-02
RMM:   5    -0.230575786285E+04    0.32605E-04   -0.80012E-05  2896   0.652E-03    0.282E-02
RMM:   6    -0.230575785985E+04    0.29973E-05   -0.63162E-05  3262   0.598E-03
  35 F= -.23261427E+04 E0= -.23261427E+04  d E =-.183038E-02  mag=     3.0000
       N       E                     dE             d eps       ncg     rms          rms(c)
DAV:   1    -0.230574946822E+04    0.83946E-02   -0.43577E-01  4400   0.563E-01    0.248E-01
RMM:   2    -0.230575819962E+04   -0.87314E-02   -0.89213E-02  5917   0.132E-01    0.205E-01
RMM:   3    -0.230575874442E+04   -0.54480E-03   -0.84229E-03  5590   0.474E-02    0.169E-01
RMM:   4    -0.230575848757E+04    0.25685E-03   -0.10299E-03  3777   0.121E-02    0.649E-02
RMM:   5    -0.230575843893E+04    0.48641E-04   -0.12084E-04  3024   0.768E-03    0.343E-02
RMM:   6    -0.230575843331E+04    0.56262E-05   -0.92012E-05  3586   0.706E-03
  36 F= -.23261435E+04 E0= -.23261435E+04  d E =-.259744E-02  mag=     3.0000
       N       E                     dE             d eps       ncg     rms          rms(c)
DAV:   1    -0.230575391387E+04    0.45251E-02   -0.28216E-01  4464   0.456E-01    0.194E-01
RMM:   2    -0.230575959503E+04   -0.56812E-02   -0.57319E-02  6211   0.108E-01    0.163E-01
RMM:   3    -0.230575990832E+04   -0.31329E-03   -0.51564E-03  5277   0.361E-02    0.131E-01
RMM:   4    -0.230575975542E+04    0.15289E-03   -0.63858E-04  3360   0.977E-03    0.529E-02
RMM:   5    -0.230575972077E+04    0.34655E-04   -0.81546E-05  2971   0.644E-03    0.278E-02
RMM:   6    -0.230575971788E+04    0.28906E-05   -0.66238E-05  3265   0.602E-03
  37 F= -.23261450E+04 E0= -.23261450E+04  d E =-.147044E-02  mag=     3.0000
       N       E                     dE             d eps       ncg     rms          rms(c)
DAV:   1    -0.230575488172E+04    0.48390E-02   -0.24667E-01  4464   0.426E-01    0.181E-01
RMM:   2    -0.230575984179E+04   -0.49601E-02   -0.50025E-02  6164   0.100E-01    0.152E-01
RMM:   3    -0.230576011875E+04   -0.27696E-03   -0.44861E-03  5080   0.340E-02    0.122E-01
RMM:   4    -0.230575998516E+04    0.13358E-03   -0.55920E-04  3274   0.919E-03    0.495E-02
RMM:   5    -0.230575995426E+04    0.30904E-04   -0.70241E-05  2948   0.605E-03    0.259E-02
RMM:   6    -0.230575995109E+04    0.31673E-05   -0.57906E-05  3186   0.572E-03
  38 F= -.23261454E+04 E0= -.23261454E+04  d E =-.187915E-02  mag=     3.0000
       N       E                     dE             d eps       ncg     rms          rms(c)
DAV:   1    -0.230575398719E+04    0.59671E-02   -0.33113E-01  4400   0.487E-01    0.211E-01
RMM:   2    -0.230576113232E+04   -0.71451E-02   -0.71633E-02  6188   0.118E-01    0.183E-01
RMM:   3    -0.230576148486E+04   -0.35254E-03   -0.62346E-03  5387   0.406E-02    0.140E-01
RMM:   4    -0.230576131206E+04    0.17280E-03   -0.75077E-04  3392   0.103E-02    0.575E-02
RMM:   5    -0.230576126743E+04    0.44626E-04   -0.94255E-05  3068   0.668E-03    0.313E-02
RMM:   6    -0.230576126270E+04    0.47262E-05   -0.79653E-05  3417   0.654E-03
  39 F= -.23261469E+04 E0= -.23261469E+04  d E =-.152753E-02  mag=     3.0000
       N       E                     dE             d eps       ncg     rms          rms(c)
DAV:   1    -0.230574915718E+04    0.12110E-01   -0.56796E-01  4396   0.637E-01    0.276E-01
RMM:   2    -0.230576145798E+04   -0.12301E-01   -0.12312E-01  6101   0.155E-01    0.245E-01
RMM:   3    -0.230576203919E+04   -0.58121E-03   -0.10739E-02  5736   0.531E-02    0.185E-01
RMM:   4    -0.230576173963E+04    0.29956E-03   -0.12863E-03  3938   0.130E-02    0.754E-02
RMM:   5    -0.230576166237E+04    0.77256E-04   -0.16040E-04  3400   0.820E-03    0.414E-02
RMM:   6    -0.230576165211E+04    0.10262E-04   -0.13465E-04  3873   0.807E-03    0.183E-02
RMM:   7    -0.230576164956E+04    0.25464E-05   -0.13984E-05  2843   0.514E-03
  40 F= -.23261476E+04 E0= -.23261476E+04  d E =-.219946E-02  mag=     3.0000
       N       E                     dE             d eps       ncg     rms          rms(c)
DAV:   1    -0.230575569351E+04    0.59586E-02   -0.31405E-01  4448   0.460E-01    0.205E-01
RMM:   2    -0.230576274059E+04   -0.70471E-02   -0.70399E-02  6070   0.113E-01    0.191E-01
RMM:   3    -0.230576301326E+04   -0.27267E-03   -0.60445E-03  5238   0.382E-02    0.133E-01
RMM:   4    -0.230576286608E+04    0.14719E-03   -0.72363E-04  3302   0.950E-03    0.561E-02
RMM:   5    -0.230576282103E+04    0.45049E-04   -0.84288E-05  3038   0.606E-03    0.313E-02
RMM:   6    -0.230576281674E+04    0.42908E-05   -0.78387E-05  3349   0.606E-03
  41 F= -.23261490E+04 E0= -.23261490E+04  d E =-.142666E-02  mag=     3.0000
       N       E                     dE             d eps       ncg     rms          rms(c)
DAV:   1    -0.230574730279E+04    0.15518E-01   -0.69855E-01  4392   0.687E-01    0.307E-01
RMM:   2    -0.230576302798E+04   -0.15725E-01   -0.15671E-01  6018   0.168E-01    0.296E-01
RMM:   3    -0.230576355824E+04   -0.53026E-03   -0.13580E-02  5686   0.572E-02    0.199E-01
RMM:   4    -0.230576323502E+04    0.32322E-03   -0.16156E-03  3985   0.137E-02    0.832E-02
RMM:   5    -0.230576313666E+04    0.98355E-04   -0.18549E-04  3435   0.826E-03    0.465E-02
RMM:   6    -0.230576312563E+04    0.11036E-04   -0.15993E-04  3885   0.844E-03    0.209E-02
RMM:   7    -0.230576312305E+04    0.25793E-05   -0.17186E-05  2848   0.524E-03
  42 F= -.23261497E+04 E0= -.23261497E+04  d E =-.212288E-02  mag=     3.0000
       N       E                     dE             d eps       ncg     rms          rms(c)
DAV:   1    -0.230575628911E+04    0.68365E-02   -0.34264E-01  4448   0.480E-01    0.219E-01
RMM:   2    -0.230576418248E+04   -0.78934E-02   -0.78316E-02  6086   0.119E-01    0.226E-01
RMM:   3    -0.230576434891E+04   -0.16643E-03   -0.70541E-03  5412   0.407E-02    0.136E-01
RMM:   4    -0.230576420082E+04    0.14809E-03   -0.80719E-04  3394   0.101E-02    0.583E-02
RMM:   5    -0.230576414683E+04    0.53990E-04   -0.95373E-05  3125   0.657E-03    0.316E-02
RMM:   6    -0.230576414252E+04    0.43090E-05   -0.75899E-05  3223   0.654E-03
  43 F= -.23261510E+04 E0= -.23261510E+04  d E =-.125210E-02  mag=     3.0000
       N       E                     dE             d eps       ncg     rms          rms(c)
DAV:   1    -0.230575765960E+04    0.64872E-02   -0.28722E-01  4448   0.439E-01    0.202E-01
RMM:   2    -0.230576429067E+04   -0.66311E-02   -0.65729E-02  6166   0.109E-01    0.213E-01
RMM:   3    -0.230576438852E+04   -0.97854E-04   -0.57430E-03  5308   0.374E-02    0.126E-01
RMM:   4    -0.230576426115E+04    0.12737E-03   -0.68060E-04  3261   0.950E-03    0.528E-02
RMM:   5    -0.230576421739E+04    0.43760E-04   -0.80273E-05  3081   0.618E-03    0.285E-02
RMM:   6    -0.230576421429E+04    0.30967E-05   -0.55854E-05  3073   0.605E-03
  44 F= -.23261512E+04 E0= -.23261512E+04  d E =-.153801E-02  mag=     3.0000
       N       E                     dE             d eps       ncg     rms          rms(c)
DAV:   1    -0.230575488960E+04    0.93278E-02   -0.45987E-01  4400   0.567E-01    0.262E-01
RMM:   2    -0.230576569180E+04   -0.10802E-01   -0.10608E-01  6258   0.142E-01    0.294E-01
RMM:   3    -0.230576571307E+04   -0.21269E-04   -0.98364E-03  5648   0.494E-02    0.155E-01
RMM:   4    -0.230576551631E+04    0.19675E-03   -0.11229E-03  3729   0.119E-02    0.647E-02
RMM:   5    -0.230576544997E+04    0.66338E-04   -0.12432E-04  3454   0.751E-03    0.366E-02
RMM:   6    -0.230576544337E+04    0.66071E-05   -0.84838E-05  3293   0.732E-03
  45 F= -.23261525E+04 E0= -.23261525E+04  d E =-.130519E-02  mag=     3.0000
       N       E                     dE             d eps       ncg     rms          rms(c)
DAV:   1    -0.230575775786E+04    0.76921E-02   -0.34054E-01  4432   0.488E-01    0.227E-01
RMM:   2    -0.230576578965E+04   -0.80318E-02   -0.79001E-02  6249   0.122E-01    0.252E-01
RMM:   3    -0.230576581737E+04   -0.27724E-04   -0.72993E-03  5515   0.424E-02    0.134E-01
RMM:   4    -0.230576566960E+04    0.14778E-03   -0.83726E-04  3388   0.103E-02    0.560E-02
RMM:   5    -0.230576561993E+04    0.49664E-04   -0.91536E-05  3186   0.662E-03    0.316E-02
RMM:   6    -0.230576561440E+04    0.55349E-05   -0.64136E-05  3113   0.651E-03
  46 F= -.23261528E+04 E0= -.23261528E+04  d E =-.154170E-02  mag=     3.0000
       N       E                     dE             d eps       ncg     rms          rms(c)
DAV:   1    -0.230575882070E+04    0.67992E-02   -0.34847E-01  4400   0.484E-01    0.223E-01
RMM:   2    -0.230576714506E+04   -0.83244E-02   -0.81060E-02  6376   0.123E-01    0.271E-01
RMM:   3    -0.230576702694E+04    0.11812E-03   -0.71294E-03  5362   0.405E-02    0.126E-01
RMM:   4    -0.230576692873E+04    0.98209E-04   -0.86927E-04  3290   0.987E-03    0.550E-02
RMM:   5    -0.230576688545E+04    0.43276E-04   -0.80397E-05  3130   0.603E-03    0.342E-02
RMM:   6    -0.230576687980E+04    0.56497E-05   -0.68024E-05  3058   0.615E-03
  47 F= -.23261541E+04 E0= -.23261541E+04  d E =-.130766E-02  mag=     3.0000
       N       E                     dE             d eps       ncg     rms          rms(c)
DAV:   1    -0.230571954863E+04    0.47337E-01   -0.20746E+00  4392   0.118E+00    0.542E-01
RMM:   2    -0.230576917013E+04   -0.49622E-01   -0.48307E-01  6242   0.295E-01    0.657E-01
RMM:   3    -0.230576868681E+04    0.48332E-03   -0.43955E-02  5988   0.969E-02    0.306E-01
RMM:   4    -0.230576809185E+04    0.59496E-03   -0.51796E-03  5068   0.227E-02    0.135E-01
RMM:   5    -0.230576782295E+04    0.26890E-03   -0.48707E-04  4545   0.127E-02    0.832E-02
RMM:   6    -0.230576778197E+04    0.40978E-04   -0.41336E-04  4400   0.128E-02    0.221E-02
RMM:   7    -0.230576777848E+04    0.34967E-05   -0.42607E-05  2872   0.625E-03
  48 F= -.23261551E+04 E0= -.23261551E+04  d E =-.231048E-02  mag=     3.0000
       N       E                     dE             d eps       ncg     rms          rms(c)
DAV:   1    -0.230576312217E+04    0.46598E-02   -0.25225E-01  4528   0.408E-01    0.189E-01
RMM:   2    -0.230576891798E+04   -0.57958E-02   -0.56504E-02  6217   0.102E-01    0.223E-01
RMM:   3    -0.230576886197E+04    0.56011E-04   -0.50208E-03  5072   0.337E-02    0.107E-01
RMM:   4    -0.230576878998E+04    0.71985E-04   -0.61096E-04  3179   0.838E-03    0.462E-02
RMM:   5    -0.230576875991E+04    0.30070E-04   -0.56988E-05  2983   0.517E-03    0.283E-02
RMM:   6    -0.230576875661E+04    0.32989E-05   -0.50333E-05  2964   0.523E-03
  49 F= -.23261562E+04 E0= -.23261562E+04  d E =-.108138E-02  mag=     3.0000
       N       E                     dE             d eps       ncg     rms          rms(c)
DAV:   1    -0.230571964816E+04    0.49112E-01   -0.22597E+00  4392   0.122E+00    0.568E-01
RMM:   2    -0.230577208646E+04   -0.52438E-01   -0.50796E-01  6163   0.302E-01    0.703E-01
RMM:   3    -0.230577107277E+04    0.10137E-02   -0.45613E-02  5962   0.983E-02    0.314E-01
RMM:   4    -0.230577045251E+04    0.62026E-03   -0.54633E-03  5051   0.232E-02    0.136E-01
RMM:   5    -0.230577018695E+04    0.26557E-03   -0.50900E-04  4526   0.131E-02    0.853E-02
RMM:   6    -0.230577014894E+04    0.38006E-04   -0.41145E-04  4347   0.128E-02    0.219E-02
RMM:   7    -0.230577014543E+04    0.35061E-05   -0.43497E-05  2885   0.640E-03
  50 F= -.23261579E+04 E0= -.23261579E+04  d E =-.278185E-02  mag=     3.0000
       N       E                     dE             d eps       ncg     rms          rms(c)
DAV:   1    -0.230576976364E+04    0.38530E-03   -0.11320E-01  4608   0.300E-01    0.127E-01
RMM:   2    -0.230577152417E+04   -0.17605E-02   -0.17574E-02  5955   0.676E-02    0.128E-01
RMM:   3    -0.230577152455E+04   -0.38787E-06   -0.15448E-03  4374   0.233E-02    0.832E-02
RMM:   4    -0.230577145955E+04    0.65007E-04   -0.20375E-04  3051   0.715E-03    0.299E-02
RMM:   5    -0.230577144602E+04    0.13528E-04   -0.39617E-05  2935   0.539E-03    0.141E-02
RMM:   6    -0.230577144587E+04    0.14700E-06   -0.17276E-05  2846   0.488E-03
  51 F= -.23261593E+04 E0= -.23261593E+04  d E =-.139529E-02  mag=     3.0000
       N       E                     dE             d eps       ncg     rms          rms(c)
DAV:   1    -0.230576781972E+04    0.36263E-02   -0.28760E-01  4400   0.478E-01    0.204E-01
RMM:   2    -0.230577234193E+04   -0.45222E-02   -0.44511E-02  5930   0.106E-01    0.221E-01
RMM:   3    -0.230577223728E+04    0.10465E-03   -0.38442E-03  5359   0.358E-02    0.128E-01
RMM:   4    -0.230577207940E+04    0.15788E-03   -0.50502E-04  3937   0.102E-02    0.464E-02
RMM:   5    -0.230577204280E+04    0.36604E-04   -0.94175E-05  3493   0.779E-03    0.227E-02
RMM:   6    -0.230577203913E+04    0.36638E-05   -0.34581E-05  2955   0.651E-03
  52 F= -.23261600E+04 E0= -.23261600E+04  d E =-.214037E-02  mag=     3.0000
       N       E                     dE             d eps       ncg     rms          rms(c)
DAV:   1    -0.230577092803E+04    0.11148E-02   -0.16782E-01  4448   0.368E-01    0.143E-01
RMM:   2    -0.230577326410E+04   -0.23361E-02   -0.22846E-02  6170   0.789E-02    0.160E-01
RMM:   3    -0.230577321563E+04    0.48469E-04   -0.20979E-03  4575   0.246E-02    0.882E-02
RMM:   4    -0.230577314027E+04    0.75358E-04   -0.25672E-04  3102   0.767E-03    0.328E-02
RMM:   5    -0.230577312644E+04    0.13827E-04   -0.42406E-05  2996   0.555E-03    0.168E-02
RMM:   6    -0.230577312617E+04    0.27433E-06   -0.18188E-05  2851   0.501E-03
  53 F= -.23261612E+04 E0= -.23261612E+04  d E =-.116837E-02  mag=     3.0000
       N       E                     dE             d eps       ncg     rms          rms(c)
DAV:   1    -0.230576673680E+04    0.63896E-02   -0.52990E-01  4400   0.655E-01    0.253E-01
RMM:   2    -0.230577413471E+04   -0.73979E-02   -0.72290E-02  5975   0.138E-01    0.285E-01
RMM:   3    -0.230577395877E+04    0.17594E-03   -0.63318E-03  5565   0.455E-02    0.156E-01
RMM:   4    -0.230577371201E+04    0.24676E-03   -0.78567E-04  4235   0.122E-02    0.581E-02
RMM:   5    -0.230577366709E+04    0.44926E-04   -0.12656E-04  3664   0.870E-03    0.303E-02
RMM:   6    -0.230577366314E+04    0.39409E-05   -0.53669E-05  3096   0.720E-03
  54 F= -.23261619E+04 E0= -.23261619E+04  d E =-.184994E-02  mag=     3.0000
       N       E                     dE             d eps       ncg     rms          rms(c)
DAV:   1    -0.230577135812E+04    0.23090E-02   -0.28203E-01  4432   0.512E-01    0.196E-01
RMM:   2    -0.230577525016E+04   -0.38920E-02   -0.37995E-02  6100   0.110E-01    0.212E-01
RMM:   3    -0.230577515695E+04    0.93208E-04   -0.35390E-03  5399   0.355E-02    0.123E-01
RMM:   4    -0.230577499317E+04    0.16378E-03   -0.42508E-04  4109   0.103E-02    0.434E-02
RMM:   5    -0.230577496703E+04    0.26139E-04   -0.81544E-05  3569   0.773E-03    0.223E-02
RMM:   6    -0.230577496491E+04    0.21233E-05   -0.28786E-05  2874   0.626E-03
  55 F= -.23261632E+04 E0= -.23261632E+04  d E =-.135769E-02  mag=     3.0000
       N       E                     dE             d eps       ncg     rms          rms(c)
DAV:   1    -0.230577399016E+04    0.97688E-03   -0.76103E-02  4576   0.266E-01    0.102E-01
RMM:   2    -0.230577505320E+04   -0.10630E-02   -0.10342E-02  6182   0.584E-02    0.112E-01
RMM:   3    -0.230577502274E+04    0.30462E-04   -0.96068E-04  3900   0.187E-02    0.640E-02
RMM:   4    -0.230577497885E+04    0.43893E-04   -0.11362E-04  2997   0.630E-03    0.228E-02
RMM:   5    -0.230577497148E+04    0.73693E-05   -0.25561E-05  2886   0.480E-03
  56 F= -.23261633E+04 E0= -.23261633E+04  d E =-.139337E-02  mag=     3.0000
       N       E                     dE             d eps       ncg     rms          rms(c)
DAV:   1    -0.230577235246E+04    0.26264E-02   -0.25720E-01  4400   0.489E-01    0.189E-01
RMM:   2    -0.230577641575E+04   -0.40633E-02   -0.39031E-02  6127   0.107E-01    0.215E-01
RMM:   3    -0.230577628737E+04    0.12838E-03   -0.36358E-03  5251   0.351E-02    0.111E-01
RMM:   4    -0.230577615839E+04    0.12898E-03   -0.40897E-04  3766   0.971E-03    0.420E-02
RMM:   5    -0.230577613411E+04    0.24281E-04   -0.69650E-05  3369   0.727E-03    0.229E-02
RMM:   6    -0.230577613215E+04    0.19589E-05   -0.30771E-05  2847   0.614E-03
  57 F= -.23261644E+04 E0= -.23261644E+04  d E =-.112276E-02  mag=     3.0000
       N       E                     dE             d eps       ncg     rms          rms(c)
DAV:   1    -0.230577014931E+04    0.59848E-02   -0.39590E-01  4400   0.607E-01    0.236E-01
RMM:   2    -0.230577645125E+04   -0.63019E-02   -0.60198E-02  6104   0.132E-01    0.276E-01
RMM:   3    -0.230577619441E+04    0.25684E-03   -0.55973E-03  5556   0.418E-02    0.136E-01
RMM:   4    -0.230577600446E+04    0.18995E-03   -0.63097E-04  4384   0.116E-02    0.517E-02
RMM:   5    -0.230577596613E+04    0.38324E-04   -0.10359E-04  3762   0.858E-03    0.287E-02
RMM:   6    -0.230577596142E+04    0.47140E-05   -0.46207E-05  2968   0.691E-03
  58 F= -.23261642E+04 E0= -.23261642E+04  d E =-.904492E-03  mag=     3.0000
       N       E                     dE             d eps       ncg     rms          rms(c)
DAV:   1    -0.230577440811E+04    0.15580E-02   -0.12851E-01  4400   0.345E-01    0.132E-01
RMM:   2    -0.230577643187E+04   -0.20238E-02   -0.19385E-02  6284   0.768E-02    0.154E-01
RMM:   3    -0.230577634749E+04    0.84373E-04   -0.18059E-03  4351   0.244E-02    0.753E-02
RMM:   4    -0.230577628831E+04    0.59184E-04   -0.20435E-04  3125   0.744E-03    0.293E-02
RMM:   5    -0.230577627593E+04    0.12378E-04   -0.36973E-05  2973   0.569E-03    0.175E-02
RMM:   6    -0.230577627501E+04    0.92230E-06   -0.17545E-05  2823   0.512E-03
  59 F= -.23261645E+04 E0= -.23261645E+04  d E =-.124513E-02  mag=     3.0000
       N       E                     dE             d eps       ncg     rms          rms(c)
DAV:   1    -0.230577308042E+04    0.31955E-02   -0.31007E-01  4400   0.546E-01    0.215E-01
RMM:   2    -0.230577783726E+04   -0.47568E-02   -0.46385E-02  5951   0.118E-01    0.229E-01
RMM:   3    -0.230577771253E+04    0.12473E-03   -0.43922E-03  5447   0.422E-02    0.131E-01
RMM:   4    -0.230577753182E+04    0.18071E-03   -0.50727E-04  4237   0.112E-02    0.479E-02
RMM:   5    -0.230577749032E+04    0.41493E-04   -0.10233E-04  3779   0.885E-03    0.240E-02
RMM:   6    -0.230577748640E+04    0.39248E-05   -0.40336E-05  2961   0.672E-03
  60 F= -.23261657E+04 E0= -.23261657E+04  d E =-.117012E-02  mag=     3.0000
       N       E                     dE             d eps       ncg     rms          rms(c)
DAV:   1    -0.230577746116E+04    0.29168E-04   -0.17201E-03  5312   0.414E-02    0.177E-02
RMM:   2    -0.230577748869E+04   -0.27534E-04   -0.28007E-04  4124   0.102E-02    0.186E-02
RMM:   3    -0.230577748824E+04    0.45233E-06   -0.31078E-05  2755   0.517E-03
  61 F= -.23261657E+04 E0= -.23261657E+04  d E =-.116880E-02  mag=     3.0000
       N       E                     dE             d eps       ncg     rms          rms(c)
DAV:   1    -0.230577511686E+04    0.23718E-02   -0.19865E-01  4400   0.423E-01    0.169E-01
RMM:   2    -0.230577842080E+04   -0.33039E-02   -0.33050E-02  5911   0.920E-02    0.169E-01
RMM:   3    -0.230577842715E+04   -0.63524E-05   -0.31894E-03  4981   0.307E-02    0.106E-01
RMM:   4    -0.230577832174E+04    0.10541E-03   -0.35762E-04  3253   0.872E-03    0.395E-02
RMM:   5    -0.230577829566E+04    0.26086E-04   -0.72091E-05  3162   0.667E-03    0.194E-02
RMM:   6    -0.230577829523E+04    0.42355E-06   -0.29620E-05  2862   0.584E-03
  62 F= -.23261666E+04 E0= -.23261666E+04  d E =-.877554E-03  mag=     3.0000
       N       E                     dE             d eps       ncg     rms          rms(c)
DAV:   1    -0.230577768520E+04    0.61046E-03   -0.39284E-02  4544   0.188E-01    0.760E-02
RMM:   2    -0.230577833922E+04   -0.65402E-03   -0.66004E-03  6107   0.421E-02    0.747E-02
RMM:   3    -0.230577834486E+04   -0.56349E-05   -0.64020E-04  3323   0.147E-02    0.493E-02
RMM:   4    -0.230577832237E+04    0.22484E-04   -0.73012E-05  2886   0.508E-03    0.175E-02
RMM:   5    -0.230577831773E+04    0.46400E-05   -0.15034E-05  2836   0.345E-03
  63 F= -.23261666E+04 E0= -.23261666E+04  d E =-.931497E-03  mag=     3.0000
       N       E                     dE             d eps       ncg     rms          rms(c)
DAV:   1    -0.230577500404E+04    0.33183E-02   -0.23565E-01  4400   0.460E-01    0.179E-01
RMM:   2    -0.230577890410E+04   -0.39001E-02   -0.39455E-02  6040   0.103E-01    0.172E-01
RMM:   3    -0.230577898801E+04   -0.83907E-04   -0.36950E-03  5174   0.337E-02    0.117E-01
RMM:   4    -0.230577885570E+04    0.13231E-03   -0.42412E-04  3441   0.931E-03    0.435E-02
RMM:   5    -0.230577882413E+04    0.31574E-04   -0.85060E-05  3280   0.704E-03    0.210E-02
RMM:   6    -0.230577882286E+04    0.12605E-05   -0.34863E-05  2908   0.619E-03
  64 F= -.23261672E+04 E0= -.23261672E+04  d E =-.593376E-03  mag=     3.0000
       N       E                     dE             d eps       ncg     rms          rms(c)
DAV:   1    -0.230577878119E+04    0.42931E-04   -0.17380E-03  5208   0.399E-02    0.168E-02
RMM:   2    -0.230577881104E+04   -0.29845E-04   -0.31187E-04  4056   0.994E-03    0.159E-02
RMM:   3    -0.230577881204E+04   -0.10042E-05   -0.31759E-05  2738   0.489E-03
  65 F= -.23261672E+04 E0= -.23261672E+04  d E =-.590235E-03  mag=     3.0000
       N       E                     dE             d eps       ncg     rms          rms(c)
DAV:   1    -0.230577600336E+04    0.28077E-02   -0.17366E-01  4400   0.392E-01    0.158E-01
RMM:   2    -0.230577930718E+04   -0.33038E-02   -0.33107E-02  5988   0.910E-02    0.156E-01
RMM:   3    -0.230577935806E+04   -0.50880E-04   -0.29674E-03  4899   0.298E-02    0.995E-02
RMM:   4    -0.230577926011E+04    0.97956E-04   -0.34945E-04  3246   0.837E-03    0.401E-02
RMM:   5    -0.230577923203E+04    0.28075E-04   -0.62619E-05  3076   0.622E-03    0.199E-02
RMM:   6    -0.230577922978E+04    0.22508E-05   -0.31787E-05  2912   0.568E-03
  66 F= -.23261677E+04 E0= -.23261677E+04  d E =-.460736E-03  mag=     3.0000
       N       E                     dE             d eps       ncg     rms          rms(c)
DAV:   1    -0.230577916944E+04    0.62593E-04   -0.27892E-03  5200   0.499E-02    0.214E-02
RMM:   2    -0.230577922361E+04   -0.54172E-04   -0.55540E-04  4736   0.126E-02    0.210E-02
RMM:   3    -0.230577922468E+04   -0.10666E-05   -0.50506E-05  2799   0.539E-03
  67 F= -.23261677E+04 E0= -.23261677E+04  d E =-.461104E-03  mag=     3.0000
       N       E                     dE             d eps       ncg     rms          rms(c)
DAV:   1    -0.230577632116E+04    0.29025E-02   -0.16932E-01  4400   0.375E-01    0.153E-01
RMM:   2    -0.230577969387E+04   -0.33727E-02   -0.33661E-02  5969   0.882E-02    0.154E-01
RMM:   3    -0.230577975895E+04   -0.65086E-04   -0.31283E-03  4817   0.299E-02    0.931E-02
RMM:   4    -0.230577967631E+04    0.82648E-04   -0.35758E-04  3127   0.801E-03    0.403E-02
RMM:   5    -0.230577964814E+04    0.28164E-04   -0.54753E-05  2953   0.574E-03    0.203E-02
RMM:   6    -0.230577964538E+04    0.27632E-05   -0.35541E-05  2935   0.549E-03
  68 F= -.23261681E+04 E0= -.23261681E+04  d E =-.482311E-03  mag=     3.0000
       N       E                     dE             d eps       ncg     rms          rms(c)
DAV:   1    -0.230577922817E+04    0.41997E-03   -0.20741E-02  4632   0.131E-01    0.548E-02
RMM:   2    -0.230577964272E+04   -0.41454E-03   -0.41757E-03  6055   0.320E-02    0.550E-02
RMM:   3    -0.230577965097E+04   -0.82574E-05   -0.38202E-04  3001   0.112E-02    0.347E-02
RMM:   4    -0.230577963954E+04    0.11435E-04   -0.45420E-05  2861   0.396E-03    0.136E-02
RMM:   5    -0.230577963649E+04    0.30457E-05   -0.70778E-06  2820   0.233E-03
  69 F= -.23261682E+04 E0= -.23261682E+04  d E =-.494898E-03  mag=     3.0000
       N       E                     dE             d eps       ncg     rms          rms(c)
DAV:   1    -0.230577840294E+04    0.12366E-02   -0.76760E-02  4400   0.234E-01    0.994E-02
RMM:   2    -0.230578003219E+04   -0.16292E-02   -0.16319E-02  6210   0.569E-02    0.994E-02
RMM:   3    -0.230578008282E+04   -0.50625E-04   -0.14932E-03  3538   0.181E-02    0.626E-02
RMM:   4    -0.230578004906E+04    0.33757E-04   -0.16799E-04  2928   0.589E-03    0.264E-02
RMM:   5    -0.230578003878E+04    0.10278E-04   -0.22692E-05  2852   0.351E-03    0.138E-02
RMM:   6    -0.230578003849E+04    0.28769E-06   -0.13640E-05  2846   0.315E-03
  70 F= -.23261686E+04 E0= -.23261686E+04  d E =-.419429E-03  mag=     3.0000
       N       E                     dE             d eps       ncg     rms          rms(c)
DAV:   1    -0.230577386816E+04    0.61706E-02   -0.30467E-01  4392   0.465E-01    0.199E-01
RMM:   2    -0.230578039407E+04   -0.65259E-02   -0.64872E-02  6125   0.112E-01    0.213E-01
RMM:   3    -0.230578050743E+04   -0.11336E-03   -0.59923E-03  5179   0.380E-02    0.121E-01
RMM:   4    -0.230578038413E+04    0.12330E-03   -0.66454E-04  3306   0.949E-03    0.518E-02
RMM:   5    -0.230578034197E+04    0.42159E-04   -0.79799E-05  3048   0.603E-03    0.277E-02
RMM:   6    -0.230578033876E+04    0.32132E-05   -0.49989E-05  2976   0.588E-03
  71 F= -.23261689E+04 E0= -.23261689E+04  d E =-.753533E-03  mag=     3.0000
       N       E                     dE             d eps       ncg     rms          rms(c)
DAV:   1    -0.230577788674E+04    0.24552E-02   -0.14013E-01  4432   0.321E-01    0.141E-01
RMM:   2    -0.230578089269E+04   -0.30059E-02   -0.30220E-02  6129   0.779E-02    0.137E-01
RMM:   3    -0.230578099217E+04   -0.99484E-04   -0.29001E-03  4518   0.279E-02    0.888E-02
RMM:   4    -0.230578092486E+04    0.67309E-04   -0.32372E-04  3044   0.759E-03    0.357E-02
RMM:   5    -0.230578090412E+04    0.20741E-04   -0.45403E-05  2902   0.513E-03    0.183E-02
RMM:   6    -0.230578090251E+04    0.16129E-05   -0.25957E-05  2890   0.483E-03
  72 F= -.23261695E+04 E0= -.23261695E+04  d E =-.551414E-03  mag=     3.0000
       N       E                     dE             d eps       ncg     rms          rms(c)
DAV:   1    -0.230577931941E+04    0.15847E-02   -0.78429E-02  4432   0.240E-01    0.105E-01
RMM:   2    -0.230578100799E+04   -0.16886E-02   -0.16955E-02  6209   0.588E-02    0.103E-01
RMM:   3    -0.230578106260E+04   -0.54605E-04   -0.16292E-03  3806   0.209E-02    0.666E-02
RMM:   4    -0.230578102441E+04    0.38191E-04   -0.18232E-04  2942   0.634E-03    0.269E-02
RMM:   5    -0.230578101229E+04    0.12116E-04   -0.27612E-05  2863   0.412E-03    0.137E-02
RMM:   6    -0.230578101113E+04    0.11612E-05   -0.14149E-05  2847   0.379E-03
  73 F= -.23261696E+04 E0= -.23261696E+04  d E =-.650425E-03  mag=     3.0000
       N       E                     dE             d eps       ncg     rms          rms(c)
DAV:   1    -0.230577730212E+04    0.37102E-02   -0.17910E-01  4400   0.351E-01    0.159E-01
RMM:   2    -0.230578144945E+04   -0.41473E-02   -0.41271E-02  6204   0.875E-02    0.163E-01
RMM:   3    -0.230578156240E+04   -0.11295E-03   -0.39221E-03  4703   0.310E-02    0.973E-02
RMM:   4    -0.230578148641E+04    0.75992E-04   -0.43322E-04  3058   0.796E-03    0.403E-02
RMM:   5    -0.230578146094E+04    0.25471E-04   -0.48796E-05  2926   0.507E-03    0.220E-02
RMM:   6    -0.230578145914E+04    0.17955E-05   -0.33243E-05  2933   0.483E-03
  74 F= -.23261701E+04 E0= -.23261701E+04  d E =-.497333E-03  mag=     3.0000
       N       E                     dE             d eps       ncg     rms          rms(c)
DAV:   1    -0.230577749911E+04    0.39618E-02   -0.17391E-01  4416   0.346E-01    0.157E-01
RMM:   2    -0.230578153458E+04   -0.40355E-02   -0.40213E-02  6205   0.865E-02    0.160E-01
RMM:   3    -0.230578164743E+04   -0.11285E-03   -0.38169E-03  4631   0.308E-02    0.965E-02
RMM:   4    -0.230578157290E+04    0.74526E-04   -0.42292E-04  3048   0.800E-03    0.398E-02
RMM:   5    -0.230578154861E+04    0.24299E-04   -0.47528E-05  2917   0.504E-03    0.217E-02
RMM:   6    -0.230578154692E+04    0.16818E-05   -0.31719E-05  2924   0.478E-03
  75 F= -.23261702E+04 E0= -.23261702E+04  d E =-.632957E-03  mag=     3.0000
       N       E                     dE             d eps       ncg     rms          rms(c)
DAV:   1    -0.230577834043E+04    0.32082E-02   -0.14875E-01  4432   0.309E-01    0.145E-01
RMM:   2    -0.230578198375E+04   -0.36433E-02   -0.36161E-02  6295   0.805E-02    0.154E-01
RMM:   3    -0.230578207224E+04   -0.88491E-04   -0.34657E-03  4396   0.284E-02    0.869E-02
RMM:   4    -0.230578201421E+04    0.58038E-04   -0.37728E-04  2998   0.740E-03    0.366E-02
RMM:   5    -0.230578199409E+04    0.20114E-04   -0.35969E-05  2889   0.428E-03    0.211E-02
RMM:   6    -0.230578199187E+04    0.22213E-05   -0.28838E-05  2918   0.411E-03
  76 F= -.23261707E+04 E0= -.23261707E+04  d E =-.529301E-03  mag=     3.0000
       N       E                     dE             d eps       ncg     rms          rms(c)
DAV:   1    -0.230577066205E+04    0.11332E-01   -0.46996E-01  4392   0.549E-01    0.258E-01
RMM:   2    -0.230578220785E+04   -0.11546E-01   -0.11440E-01  6243   0.142E-01    0.274E-01
RMM:   3    -0.230578247634E+04   -0.26850E-03   -0.11021E-02  5589   0.497E-02    0.151E-01
RMM:   4    -0.230578230139E+04    0.17496E-03   -0.11805E-03  3499   0.115E-02    0.657E-02
RMM:   5    -0.230578223636E+04    0.65026E-04   -0.10711E-04  3092   0.661E-03    0.379E-02
RMM:   6    -0.230578222739E+04    0.89685E-05   -0.97432E-05  3410   0.691E-03
  77 F= -.23261711E+04 E0= -.23261711E+04  d E =-.913438E-03  mag=     3.0000
       N       E                     dE             d eps       ncg     rms          rms(c)
DAV:   1    -0.230577676635E+04    0.54700E-02   -0.25631E-01  4428   0.415E-01    0.195E-01
RMM:   2    -0.230578284952E+04   -0.60832E-02   -0.60653E-02  6256   0.108E-01    0.198E-01
RMM:   3    -0.230578301694E+04   -0.16743E-03   -0.57909E-03  5211   0.372E-02    0.119E-01
RMM:   4    -0.230578290083E+04    0.11612E-03   -0.63585E-04  3200   0.937E-03    0.486E-02
RMM:   5    -0.230578286588E+04    0.34950E-04   -0.65600E-05  2968   0.583E-03    0.269E-02
RMM:   6    -0.230578286267E+04    0.32026E-05   -0.47002E-05  3037   0.571E-03
  78 F= -.23261718E+04 E0= -.23261718E+04  d E =-.736441E-03  mag=     3.0000
       N       E                     dE             d eps       ncg     rms          rms(c)
DAV:   1    -0.230577932287E+04    0.35430E-02   -0.15111E-01  4432   0.318E-01    0.149E-01
RMM:   2    -0.230578291297E+04   -0.35901E-02   -0.35780E-02  6314   0.827E-02    0.151E-01
RMM:   3    -0.230578301587E+04   -0.10289E-03   -0.34065E-03  4561   0.284E-02    0.921E-02
RMM:   4    -0.230578294584E+04    0.70031E-04   -0.37566E-04  3023   0.774E-03    0.375E-02
RMM:   5    -0.230578292469E+04    0.21141E-04   -0.40070E-05  2901   0.479E-03    0.206E-02
RMM:   6    -0.230578292237E+04    0.23219E-05   -0.28127E-05  2910   0.457E-03
  79 F= -.23261720E+04 E0= -.23261720E+04  d E =-.873284E-03  mag=     3.0000
       N       E                     dE             d eps       ncg     rms          rms(c)
DAV:   1    -0.230577811688E+04    0.48078E-02   -0.22068E-01  4400   0.378E-01    0.177E-01
RMM:   2    -0.230578328604E+04   -0.51692E-02   -0.51550E-02  6234   0.960E-02    0.176E-01
RMM:   3    -0.230578345582E+04   -0.16979E-03   -0.48405E-03  4904   0.336E-02    0.110E-01
RMM:   4    -0.230578335742E+04    0.98398E-04   -0.53944E-04  3125   0.869E-03    0.452E-02
RMM:   5    -0.230578332687E+04    0.30551E-04   -0.58778E-05  2929   0.547E-03    0.247E-02
RMM:   6    -0.230578332369E+04    0.31819E-05   -0.43534E-05  3008   0.527E-03
  80 F= -.23261725E+04 E0= -.23261725E+04  d E =-.512825E-03  mag=     3.0000
       N       E                     dE             d eps       ncg     rms          rms(c)
DAV:   1    -0.230578094462E+04    0.23823E-02   -0.10106E-01  4432   0.256E-01    0.120E-01
RMM:   2    -0.230578331163E+04   -0.23670E-02   -0.23649E-02  6262   0.658E-02    0.118E-01
RMM:   3    -0.230578339629E+04   -0.84655E-04   -0.22842E-03  3953   0.233E-02    0.750E-02
RMM:   4    -0.230578335005E+04    0.46233E-04   -0.25123E-04  2948   0.675E-03    0.306E-02
RMM:   5    -0.230578333636E+04    0.13695E-04   -0.27259E-05  2859   0.404E-03    0.167E-02
RMM:   6    -0.230578333499E+04    0.13690E-05   -0.19279E-05  2881   0.376E-03
  81 F= -.23261726E+04 E0= -.23261726E+04  d E =-.599246E-03  mag=     3.0000
       N       E                     dE             d eps       ncg     rms          rms(c)
DAV:   1    -0.230577911310E+04    0.42233E-02   -0.20178E-01  4400   0.361E-01    0.168E-01
RMM:   2    -0.230578371301E+04   -0.45999E-02   -0.46082E-02  6141   0.901E-02    0.160E-01
RMM:   3    -0.230578391624E+04   -0.20323E-03   -0.45286E-03  4776   0.334E-02    0.106E-01
RMM:   4    -0.230578382446E+04    0.91774E-04   -0.49332E-04  3106   0.843E-03    0.431E-02
RMM:   5    -0.230578379803E+04    0.26429E-04   -0.55292E-05  2913   0.522E-03    0.232E-02
RMM:   6    -0.230578379626E+04    0.17770E-05   -0.37663E-05  2966   0.492E-03
  82 F= -.23261731E+04 E0= -.23261731E+04  d E =-.571322E-03  mag=     3.0000
       N       E                     dE             d eps       ncg     rms          rms(c)
DAV:   1    -0.230578077299E+04    0.30250E-02   -0.13236E-01  4432   0.293E-01    0.137E-01
RMM:   2    -0.230578380655E+04   -0.30336E-02   -0.30416E-02  6200   0.736E-02    0.130E-01
RMM:   3    -0.230578393334E+04   -0.12679E-03   -0.28933E-03  4270   0.261E-02    0.873E-02
RMM:   4    -0.230578387052E+04    0.62823E-04   -0.32386E-04  2999   0.733E-03    0.349E-02
RMM:   5    -0.230578385338E+04    0.17140E-04   -0.36878E-05  2877   0.446E-03    0.187E-02
RMM:   6    -0.230578385242E+04    0.96162E-06   -0.23983E-05  2890   0.410E-03
  83 F= -.23261733E+04 E0= -.23261733E+04  d E =-.716202E-03  mag=     3.0000
       N       E                     dE             d eps       ncg     rms          rms(c)
DAV:   1    -0.230577971073E+04    0.41427E-02   -0.20706E-01  4396   0.380E-01    0.171E-01
RMM:   2    -0.230578424662E+04   -0.45359E-02   -0.45751E-02  6090   0.931E-02    0.155E-01
RMM:   3    -0.230578446245E+04   -0.21582E-03   -0.43694E-03  4953   0.345E-02    0.110E-01
RMM:   4    -0.230578435738E+04    0.10506E-03   -0.48754E-04  3139   0.878E-03    0.444E-02
RMM:   5    -0.230578432968E+04    0.27704E-04   -0.59754E-05  2917   0.578E-03    0.233E-02
RMM:   6    -0.230578432691E+04    0.27730E-05   -0.42276E-05  2987   0.548E-03
  84 F= -.23261739E+04 E0= -.23261739E+04  d E =-.568156E-03  mag=     3.0000
       N       E                     dE             d eps       ncg     rms          rms(c)
DAV:   1    -0.230578338678E+04    0.94290E-03   -0.42122E-02  4576   0.171E-01    0.780E-02
RMM:   2    -0.230578431041E+04   -0.92362E-03   -0.93477E-03  6152   0.434E-02    0.709E-02
RMM:   3    -0.230578435714E+04   -0.46729E-04   -0.90752E-04  3261   0.155E-02    0.516E-02
RMM:   4    -0.230578433414E+04    0.22994E-04   -0.10269E-04  2883   0.513E-03    0.200E-02
RMM:   5    -0.230578432873E+04    0.54132E-05   -0.13263E-05  2835   0.297E-03
  85 F= -.23261739E+04 E0= -.23261739E+04  d E =-.612060E-03  mag=     3.0000
       N       E                     dE             d eps       ncg     rms          rms(c)
DAV:   1    -0.230578134728E+04    0.29869E-02   -0.15905E-01  4400   0.344E-01    0.150E-01
RMM:   2    -0.230578461891E+04   -0.32716E-02   -0.33261E-02  6031   0.835E-02    0.126E-01
RMM:   3    -0.230578479594E+04   -0.17703E-03   -0.30754E-03  4562   0.293E-02    0.985E-02
RMM:   4    -0.230578470485E+04    0.91088E-04   -0.34782E-04  3060   0.806E-03    0.392E-02
RMM:   5    -0.230578468393E+04    0.20921E-04   -0.50105E-05  2890   0.539E-03    0.198E-02
RMM:   6    -0.230578468169E+04    0.22389E-05   -0.32199E-05  2946   0.497E-03
  86 F= -.23261743E+04 E0= -.23261743E+04  d E =-.417522E-03  mag=     3.0000
       N       E                     dE             d eps       ncg     rms          rms(c)
DAV:   1    -0.230578428622E+04    0.39771E-03   -0.18494E-02  4608   0.117E-01    0.523E-02
RMM:   2    -0.230578466948E+04   -0.38325E-03   -0.38875E-03  5932   0.295E-02    0.470E-02
RMM:   3    -0.230578468911E+04   -0.19631E-04   -0.37823E-04  2975   0.108E-02    0.348E-02
RMM:   4    -0.230578467819E+04    0.10917E-04   -0.43500E-05  2862   0.377E-03    0.131E-02
RMM:   5    -0.230578467588E+04    0.23091E-05   -0.63515E-06  2788   0.208E-03
  87 F= -.23261743E+04 E0= -.23261743E+04  d E =-.433582E-03  mag=     3.0000
       N       E                     dE             d eps       ncg     rms          rms(c)
DAV:   1    -0.230578173066E+04    0.29475E-02   -0.15839E-01  4400   0.351E-01    0.148E-01
RMM:   2    -0.230578492302E+04   -0.31924E-02   -0.32209E-02  5988   0.838E-02    0.138E-01
RMM:   3    -0.230578504527E+04   -0.12225E-03   -0.29561E-03  4592   0.291E-02    0.960E-02
RMM:   4    -0.230578495726E+04    0.88005E-04   -0.33167E-04  3047   0.797E-03    0.379E-02
RMM:   5    -0.230578493584E+04    0.21426E-04   -0.47286E-05  2883   0.540E-03    0.192E-02
RMM:   6    -0.230578493355E+04    0.22844E-05   -0.30654E-05  2913   0.510E-03
  88 F= -.23261747E+04 E0= -.23261747E+04  d E =-.354711E-03  mag=     3.0000
       N       E                     dE             d eps       ncg     rms          rms(c)
DAV:   1    -0.230578481363E+04    0.12220E-03   -0.50554E-03  5024   0.627E-02    0.278E-02
RMM:   2    -0.230578491763E+04   -0.10400E-03   -0.10568E-03  5078   0.160E-02    0.268E-02
RMM:   3    -0.230578492128E+04   -0.36501E-05   -0.98158E-05  2856   0.651E-03
  89 F= -.23261747E+04 E0= -.23261747E+04  d E =-.359832E-03  mag=     3.0000
       N       E                     dE             d eps       ncg     rms          rms(c)
DAV:   1    -0.230578305013E+04    0.18675E-02   -0.11595E-01  4400   0.317E-01    0.134E-01
RMM:   2    -0.230578521902E+04   -0.21689E-02   -0.21577E-02  5909   0.727E-02    0.126E-01
RMM:   3    -0.230578526836E+04   -0.49337E-04   -0.20621E-03  4322   0.260E-02    0.845E-02
RMM:   4    -0.230578519683E+04    0.71531E-04   -0.22827E-04  3016   0.742E-03    0.326E-02
RMM:   5    -0.230578518096E+04    0.15874E-04   -0.44041E-05  2881   0.539E-03    0.157E-02
RMM:   6    -0.230578518067E+04    0.28647E-06   -0.21059E-05  2850   0.485E-03
  90 F= -.23261750E+04 E0= -.23261750E+04  d E =-.322217E-03  mag=     3.0000
       N       E                     dE             d eps       ncg     rms          rms(c)
DAV:   1    -0.230578499079E+04    0.19016E-03   -0.96091E-03  4888   0.914E-02    0.396E-02
RMM:   2    -0.230578517186E+04   -0.18107E-03   -0.18102E-03  5711   0.219E-02    0.381E-02
RMM:   3    -0.230578517652E+04   -0.46619E-05   -0.17359E-04  2899   0.829E-03    0.263E-02
RMM:   4    -0.230578517002E+04    0.65006E-05   -0.20037E-05  2840   0.304E-03
  91 F= -.23261750E+04 E0= -.23261750E+04  d E =-.329711E-03  mag=     3.0000
       N       E                     dE             d eps       ncg     rms          rms(c)
DAV:   1    -0.230578337837E+04    0.17982E-02   -0.10857E-01  4400   0.304E-01    0.125E-01
RMM:   2    -0.230578547005E+04   -0.20917E-02   -0.20731E-02  5940   0.694E-02    0.127E-01
RMM:   3    -0.230578549750E+04   -0.27458E-04   -0.19937E-03  4242   0.258E-02    0.777E-02
RMM:   4    -0.230578544045E+04    0.57056E-04   -0.22021E-04  2971   0.710E-03    0.307E-02
RMM:   5    -0.230578542516E+04    0.15291E-04   -0.37819E-05  2871   0.508E-03    0.150E-02
RMM:   6    -0.230578542452E+04    0.63883E-06   -0.17840E-05  2834   0.464E-03
  92 F= -.23261753E+04 E0= -.23261753E+04  d E =-.254268E-03  mag=     3.0000
       N       E                     dE             d eps       ncg     rms          rms(c)
DAV:   1    -0.230578532681E+04    0.98347E-04   -0.51099E-03  5016   0.661E-02    0.285E-02
RMM:   2    -0.230578542712E+04   -0.10031E-03   -0.10029E-03  5223   0.162E-02    0.289E-02
RMM:   3    -0.230578542883E+04   -0.17057E-05   -0.99630E-05  2850   0.667E-03
  93 F= -.23261753E+04 E0= -.23261753E+04  d E =-.258522E-03  mag=     3.0000
       N       E                     dE             d eps       ncg     rms          rms(c)
DAV:   1    -0.230578370890E+04    0.17182E-02   -0.10393E-01  4400   0.295E-01    0.123E-01
RMM:   2    -0.230578578017E+04   -0.20713E-02   -0.20382E-02  5998   0.689E-02    0.128E-01
RMM:   3    -0.230578579226E+04   -0.12093E-04   -0.19706E-03  4140   0.242E-02    0.734E-02
RMM:   4    -0.230578574504E+04    0.47221E-04   -0.22111E-04  2964   0.680E-03    0.309E-02
RMM:   5    -0.230578572934E+04    0.15696E-04   -0.34436E-05  2866   0.485E-03    0.156E-02
RMM:   6    -0.230578572892E+04    0.41892E-06   -0.20404E-05  2840   0.449E-03
  94 F= -.23261756E+04 E0= -.23261756E+04  d E =-.269813E-03  mag=     3.0000
       N       E                     dE             d eps       ncg     rms          rms(c)
DAV:   1    -0.230578541735E+04    0.31199E-03   -0.17193E-02  4464   0.120E-01    0.510E-02
RMM:   2    -0.230578575854E+04   -0.34119E-03   -0.33926E-03  5953   0.286E-02    0.526E-02
RMM:   3    -0.230578576170E+04   -0.31593E-05   -0.32459E-04  2981   0.106E-02    0.317E-02
RMM:   4    -0.230578575287E+04    0.88253E-05   -0.36895E-05  2849   0.360E-03
  95 F= -.23261756E+04 E0= -.23261756E+04  d E =-.281394E-03  mag=     3.0000
       N       E                     dE             d eps       ncg     rms          rms(c)
DAV:   1    -0.230578449843E+04    0.12633E-02   -0.78717E-02  4400   0.255E-01    0.104E-01
RMM:   2    -0.230578606161E+04   -0.15632E-02   -0.15448E-02  6059   0.593E-02    0.109E-01
RMM:   3    -0.230578607891E+04   -0.17304E-04   -0.14717E-03  3823   0.215E-02    0.629E-02
RMM:   4    -0.230578604419E+04    0.34729E-04   -0.16538E-04  2929   0.614E-03    0.269E-02
RMM:   5    -0.230578603283E+04    0.11352E-04   -0.25907E-05  2844   0.430E-03    0.132E-02
RMM:   6    -0.230578603275E+04    0.84226E-07   -0.13866E-05  2832   0.384E-03
  96 F= -.23261758E+04 E0= -.23261758E+04  d E =-.258889E-03  mag=     3.0000
       N       E                     dE             d eps       ncg     rms          rms(c)
DAV:   1    -0.230578541912E+04    0.61372E-03   -0.33797E-02  4432   0.167E-01    0.701E-02
RMM:   2    -0.230578609885E+04   -0.67974E-03   -0.67188E-03  6116   0.392E-02    0.748E-02
RMM:   3    -0.230578610212E+04   -0.32668E-05   -0.63901E-04  3183   0.146E-02    0.422E-02
RMM:   4    -0.230578608665E+04    0.15469E-04   -0.72411E-05  2877   0.449E-03    0.166E-02
RMM:   5    -0.230578608232E+04    0.43257E-05   -0.99134E-06  2828   0.278E-03
  97 F= -.23261759E+04 E0= -.23261759E+04  d E =-.294791E-03  mag=     3.0000
       N       E                     dE             d eps       ncg     rms          rms(c)
DAV:   1    -0.230578516915E+04    0.91750E-03   -0.65504E-02  4400   0.244E-01    0.993E-02
RMM:   2    -0.230578630612E+04   -0.11370E-02   -0.11584E-02  6027   0.564E-02    0.846E-02
RMM:   3    -0.230578635562E+04   -0.49502E-04   -0.11003E-03  3814   0.198E-02    0.661E-02
RMM:   4    -0.230578631157E+04    0.44056E-04   -0.12651E-04  2911   0.628E-03    0.244E-02
RMM:   5    -0.230578630226E+04    0.93061E-05   -0.26579E-05  2846   0.449E-03
  98 F= -.23261761E+04 E0= -.23261761E+04  d E =-.243452E-03  mag=     3.0000
       N       E                     dE             d eps       ncg     rms          rms(c)
DAV:   1    -0.230578620663E+04    0.10494E-03   -0.50638E-03  5088   0.679E-02    0.281E-02
RMM:   2    -0.230578629318E+04   -0.86545E-04   -0.92198E-04  5357   0.171E-02    0.158E-02
RMM:   3    -0.230578630066E+04   -0.74831E-05   -0.91304E-05  2828   0.675E-03
  99 F= -.23261761E+04 E0= -.23261761E+04  d E =-.248536E-03  mag=     3.0000
       N       E                     dE             d eps       ncg     rms          rms(c)
DAV:   1    -0.230578563103E+04    0.66215E-03   -0.46609E-02  4400   0.206E-01    0.817E-02
RMM:   2    -0.230578642158E+04   -0.79056E-03   -0.81523E-03  5956   0.473E-02    0.567E-02
RMM:   3    -0.230578647736E+04   -0.55775E-04   -0.80984E-04  3374   0.166E-02    0.494E-02
RMM:   4    -0.230578645585E+04    0.21509E-04   -0.89806E-05  2879   0.536E-03    0.241E-02
RMM:   5    -0.230578644865E+04    0.71987E-05   -0.21937E-05  2828   0.385E-03
 100 F= -.23261763E+04 E0= -.23261763E+04  d E =-.191963E-03  mag=     3.0000
       N       E                     dE             d eps       ncg     rms          rms(c)
DAV:   1    -0.230578609627E+04    0.35958E-03   -0.19023E-02  4448   0.132E-01    0.527E-02
RMM:   2    -0.230578641378E+04   -0.31752E-03   -0.33579E-03  6021   0.315E-02    0.291E-02
RMM:   3    -0.230578643862E+04   -0.24837E-04   -0.32186E-04  2940   0.111E-02    0.262E-02
RMM:   4    -0.230578643421E+04    0.44066E-05   -0.36822E-05  2850   0.364E-03
 101 F= -.23261763E+04 E0= -.23261763E+04  d E =-.205933E-03  mag=     3.0000
       N       E                     dE             d eps       ncg     rms          rms(c)
DAV:   1    -0.230578594572E+04    0.49290E-03   -0.34307E-02  4400   0.172E-01    0.672E-02
RMM:   2    -0.230578656105E+04   -0.61533E-03   -0.62759E-03  5953   0.391E-02    0.557E-02
RMM:   3    -0.230578659716E+04   -0.36110E-04   -0.61427E-04  3167   0.148E-02    0.453E-02
RMM:   4    -0.230578657802E+04    0.19138E-04   -0.68763E-05  2866   0.462E-03    0.198E-02
RMM:   5    -0.230578657299E+04    0.50232E-05   -0.16069E-05  2833   0.318E-03
 102 F= -.23261765E+04 E0= -.23261765E+04  d E =-.176375E-03  mag=     3.0000
       N       E                     dE             d eps       ncg     rms          rms(c)
DAV:   1    -0.230578567605E+04    0.90197E-03   -0.48511E-02  4400   0.204E-01    0.804E-02
RMM:   2    -0.230578653188E+04   -0.85584E-03   -0.89269E-03  6048   0.479E-02    0.519E-02
RMM:   3    -0.230578659782E+04   -0.65940E-04   -0.86400E-04  3366   0.167E-02    0.473E-02
RMM:   4    -0.230578657969E+04    0.18130E-04   -0.96591E-05  2876   0.522E-03    0.236E-02
RMM:   5    -0.230578657294E+04    0.67528E-05   -0.17361E-05  2832   0.342E-03
 103 F= -.23261765E+04 E0= -.23261765E+04  d E =-.221162E-03  mag=     3.0000
       N       E                     dE             d eps       ncg     rms          rms(c)
DAV:   1    -0.230578603839E+04    0.54130E-03   -0.37504E-02  4432   0.178E-01    0.702E-02
RMM:   2    -0.230578670313E+04   -0.66474E-03   -0.69851E-03  6038   0.419E-02    0.375E-02
RMM:   3    -0.230578675571E+04   -0.52578E-04   -0.69469E-04  3150   0.150E-02    0.287E-02
RMM:   4    -0.230578675496E+04    0.74436E-06   -0.76705E-05  2873   0.442E-03
 104 F= -.23261768E+04 E0= -.23261768E+04  d E =-.217453E-03  mag=     3.0000
       N       E                     dE             d eps       ncg     rms          rms(c)
DAV:   1    -0.230578608766E+04    0.66805E-03   -0.37284E-02  4400   0.177E-01    0.710E-02
RMM:   2    -0.230578676794E+04   -0.68028E-03   -0.68854E-03  5942   0.402E-02    0.620E-02
[...]
       N       E                     dE             d eps       ncg     rms          rms(c)
DAV:   1    -0.230579186036E+04    0.13861E-02   -0.94633E-02  4424   0.271E-01    0.953E-02
RMM:   2    -0.230579317625E+04   -0.13159E-02   -0.13854E-02  5878   0.572E-02    0.601E-02
RMM:   3    -0.230579327737E+04   -0.10113E-03   -0.11861E-03  3535   0.205E-02    0.619E-02
RMM:   4    -0.230579325431E+04    0.23067E-04   -0.14373E-04  2918   0.576E-03    0.320E-02
RMM:   5    -0.230579324323E+04    0.11079E-04   -0.30532E-05  2905   0.384E-03    0.139E-02
RMM:   6    -0.230579324305E+04    0.18138E-06   -0.98409E-06  2826   0.326E-03
 278 F= -.23261854E+04 E0= -.23261854E+04  d E =-.208798E-03  mag=     3.0000
       N       E                     dE             d eps       ncg     rms          rms(c)
DAV:   1    -0.230579184561E+04    0.13976E-02   -0.11078E-01  4392   0.297E-01    0.105E-01
RMM:   2    -0.230579333857E+04   -0.14930E-02   -0.15803E-02  5832   0.625E-02    0.640E-02
RMM:   3    -0.230579345151E+04   -0.11294E-03   -0.13389E-03  3753   0.230E-02    0.664E-02
RMM:   4    -0.230579342498E+04    0.26531E-04   -0.16425E-04  2928   0.626E-03    0.350E-02
RMM:   5    -0.230579341117E+04    0.13805E-04   -0.36987E-05  2936   0.449E-03    0.150E-02
RMM:   6    -0.230579341072E+04    0.45053E-06   -0.11614E-05  2839   0.383E-03
 279 F= -.23261856E+04 E0= -.23261856E+04  d E =-.193658E-03  mag=     3.0000
       N       E                     dE             d eps       ncg     rms          rms(c)
DAV:   1    -0.230579290403E+04    0.50714E-03   -0.35090E-02  4480   0.167E-01    0.596E-02
RMM:   2    -0.230579337629E+04   -0.47226E-03   -0.50044E-03  5804   0.356E-02    0.366E-02
RMM:   3    -0.230579341692E+04   -0.40632E-04   -0.46261E-04  3045   0.142E-02    0.382E-02
RMM:   4    -0.230579340798E+04    0.89374E-05   -0.54576E-05  2866   0.394E-03
 280 F= -.23261856E+04 E0= -.23261856E+04  d E =-.206006E-03  mag=     3.0000
       N       E                     dE             d eps       ncg     rms          rms(c)
DAV:   1    -0.230579270445E+04    0.71247E-03   -0.64130E-02  4400   0.234E-01    0.846E-02
RMM:   2    -0.230579350908E+04   -0.80463E-03   -0.85499E-03  5835   0.488E-02    0.521E-02
RMM:   3    -0.230579357470E+04   -0.65627E-04   -0.78128E-04  3406   0.180E-02    0.583E-02
RMM:   4    -0.230579355087E+04    0.23832E-04   -0.97880E-05  2892   0.547E-03    0.284E-02
RMM:   5    -0.230579354191E+04    0.89612E-05   -0.29712E-05  2906   0.416E-03
 281 F= -.23261858E+04 E0= -.23261858E+04  d E =-.149204E-03  mag=     3.0000
       N       E                     dE             d eps       ncg     rms          rms(c)
DAV:   1    -0.230579341640E+04    0.13447E-03   -0.91379E-03  4752   0.885E-02    0.329E-02
RMM:   2    -0.230579353257E+04   -0.11617E-03   -0.12463E-03  5386   0.201E-02    0.192E-02
RMM:   3    -0.230579354334E+04   -0.10769E-04   -0.11792E-04  2847   0.805E-03    0.205E-02
RMM:   4    -0.230579354086E+04    0.24828E-05   -0.14910E-05  2826   0.262E-03
 282 F= -.23261858E+04 E0= -.23261858E+04  d E =-.154086E-03  mag=     3.0000
       N       E                     dE             d eps       ncg     rms          rms(c)
DAV:   1    -0.230579326178E+04    0.28156E-03   -0.31392E-02  4400   0.169E-01    0.618E-02
RMM:   2    -0.230579361931E+04   -0.35753E-03   -0.38457E-03  5781   0.349E-02    0.366E-02
RMM:   3    -0.230579364890E+04   -0.29590E-04   -0.35959E-04  3103   0.132E-02    0.422E-02
RMM:   4    -0.230579363524E+04    0.13665E-04   -0.45677E-05  2863   0.429E-03    0.199E-02
RMM:   5    -0.230579363034E+04    0.48994E-05   -0.15606E-05  2846   0.324E-03
 283 F= -.23261859E+04 E0= -.23261859E+04  d E =-.992042E-04  mag=     3.0000
       N       E                     dE             d eps       ncg     rms          rms(c)
DAV:   1    -0.230579362041E+04    0.14831E-04   -0.60359E-04  5032   0.238E-02    0.941E-03
RMM:   2    -0.230579362759E+04   -0.71816E-05   -0.80610E-05  3075   0.581E-03
 284 F= -.23261859E+04 E0= -.23261859E+04  d E =-.978664E-04  mag=     3.0000
       N       E                     dE             d eps       ncg     rms          rms(c)
DAV:   1    -0.230579355832E+04    0.62089E-04   -0.15832E-02  4400   0.127E-01    0.478E-02
RMM:   2    -0.230579370518E+04   -0.14686E-03   -0.15821E-03  5716   0.266E-02    0.315E-02
RMM:   3    -0.230579371976E+04   -0.14572E-04   -0.17473E-04  2940   0.111E-02    0.364E-02
RMM:   4    -0.230579370734E+04    0.12415E-04   -0.22360E-05  2833   0.388E-03    0.129E-02
RMM:   5    -0.230579370517E+04    0.21739E-05   -0.99080E-06  2820   0.281E-03
 285 F= -.23261860E+04 E0= -.23261860E+04  d E =-.730649E-04  mag=     3.0000
       N       E                     dE             d eps       ncg     rms          rms(c)
DAV:   1    -0.230579370265E+04    0.46874E-05   -0.23001E-04  5080   0.157E-02    0.623E-03
RMM:   2    -0.230579370495E+04   -0.22942E-05   -0.26770E-05  2667   0.389E-03
 286 F= -.23261860E+04 E0= -.23261860E+04  d E =-.722824E-04  mag=     3.0000
       N       E                     dE             d eps       ncg     rms          rms(c)
DAV:   1    -0.230579370482E+04   -0.21623E-05   -0.84825E-03  4400   0.958E-02    0.346E-02
RMM:   2    -0.230579376215E+04   -0.57337E-04   -0.65668E-04  5316   0.192E-02    0.157E-02
RMM:   3    -0.230579376417E+04   -0.20226E-05   -0.66811E-05  2851   0.865E-03
 287 F= -.23261860E+04 E0= -.23261860E+04  d E =-.493264E-04  mag=     3.0000
       N       E                     dE             d eps       ncg     rms          rms(c)
DAV:   1    -0.230579376377E+04   -0.16165E-05   -0.30143E-04  5200   0.186E-02    0.153E-02
RMM:   2    -0.230579377656E+04   -0.12787E-04   -0.50746E-05  2868   0.462E-03    0.346E-02
RMM:   3    -0.230579376445E+04    0.12101E-04   -0.12851E-05  2420   0.313E-03    0.553E-03
RMM:   4    -0.230579376389E+04    0.56098E-06   -0.23359E-06  2298   0.125E-03
 288 F= -.23261860E+04 E0= -.23261860E+04  d E =-.471086E-04  mag=     3.0000
       N       E                     dE             d eps       ncg     rms          rms(c)
DAV:   1    -0.230579376358E+04    0.87664E-06   -0.81681E-03  4400   0.939E-02    0.306E-02
RMM:   2    -0.230579381611E+04   -0.52531E-04   -0.58948E-04  5375   0.175E-02    0.149E-02
RMM:   3    -0.230579381857E+04   -0.24663E-05   -0.50648E-05  2827   0.767E-03
 289 F= -.23261861E+04 E0= -.23261861E+04  d E =-.388233E-04  mag=     3.0000
       N       E                     dE             d eps       ncg     rms          rms(c)
DAV:   1    -0.230579381847E+04   -0.23603E-05   -0.37574E-04  5152   0.208E-02    0.131E-02
RMM:   2    -0.230579382415E+04   -0.56842E-05   -0.38460E-05  2795   0.454E-03
 290 F= -.23261861E+04 E0= -.23261861E+04  d E =-.409451E-04  mag=     3.0000
       N       E                     dE             d eps       ncg     rms          rms(c)
DAV:   1    -0.230579382143E+04   -0.29590E-05   -0.94245E-03  4396   0.103E-01    0.343E-02
RMM:   2    -0.230579387447E+04   -0.53039E-04   -0.60500E-04  5383   0.198E-02    0.169E-02
RMM:   3    -0.230579387492E+04   -0.44837E-06   -0.54706E-05  2860   0.901E-03
 291 F= -.23261861E+04 E0= -.23261861E+04  d E =-.394039E-04  mag=     3.0000
       N       E                     dE             d eps       ncg     rms          rms(c)
DAV:   1    -0.230579387671E+04   -0.22472E-05   -0.91664E-05  5240   0.113E-02    0.179E-02
RMM:   2    -0.230579389713E+04   -0.20415E-04   -0.50299E-05  2875   0.377E-03    0.466E-02
RMM:   3    -0.230579387421E+04    0.22921E-04   -0.13670E-05  2435   0.291E-03    0.449E-03
RMM:   4    -0.230579387382E+04    0.39209E-06   -0.22601E-06  2146   0.114E-03
 292 F= -.23261861E+04 E0= -.23261861E+04  d E =-.371601E-04  mag=     3.0000
       N       E                     dE             d eps       ncg     rms          rms(c)
DAV:   1    -0.230579387510E+04   -0.88650E-06   -0.97767E-03  4424   0.106E-01    0.335E-02
RMM:   2    -0.230579392675E+04   -0.51651E-04   -0.58479E-04  5439   0.190E-02    0.157E-02
RMM:   3    -0.230579392711E+04   -0.36601E-06   -0.43077E-05  2841   0.806E-03
 293 F= -.23261861E+04 E0= -.23261861E+04  d E =-.307043E-04  mag=     3.0000
       N       E                     dE             d eps       ncg     rms          rms(c)
DAV:   1    -0.230579392444E+04    0.23110E-05   -0.75096E-05  5200   0.103E-02    0.106E-02
RMM:   2    -0.230579392978E+04   -0.53470E-05   -0.16940E-05  2536   0.275E-03
 294 F= -.23261861E+04 E0= -.23261861E+04  d E =-.351064E-04  mag=     3.0000
       N       E                     dE             d eps       ncg     rms          rms(c)
DAV:   1    -0.230579391082E+04    0.13615E-04   -0.97221E-03  4392   0.107E-01    0.329E-02
RMM:   2    -0.230579396400E+04   -0.53181E-04   -0.58964E-04  5448   0.200E-02    0.174E-02
RMM:   3    -0.230579396700E+04   -0.30006E-05   -0.52799E-05  2861   0.878E-03
 295 F= -.23261862E+04 E0= -.23261862E+04  d E =-.292831E-04  mag=     3.0000
       N       E                     dE             d eps       ncg     rms          rms(c)
DAV:   1    -0.230579396335E+04    0.64683E-06   -0.24177E-05  4368   0.699E-03    0.965E-03
RMM:   2    -0.230579396490E+04   -0.15413E-05   -0.81585E-06  2378   0.306E-03
 296 F= -.23261862E+04 E0= -.23261862E+04  d E =-.268044E-04  mag=     3.0000
       N       E                     dE             d eps       ncg     rms          rms(c)
DAV:   1    -0.230579394081E+04    0.22546E-04   -0.86868E-03  4392   0.101E-01    0.314E-02
RMM:   2    -0.230579398677E+04   -0.45961E-04   -0.51983E-04  5479   0.186E-02    0.159E-02
RMM:   3    -0.230579398744E+04   -0.67271E-06   -0.44196E-05  2843   0.834E-03
 297 F= -.23261862E+04 E0= -.23261862E+04  d E =-.298427E-04  mag=     3.0000
       N       E                     dE             d eps       ncg     rms          rms(c)
DAV:   1    -0.230579398635E+04    0.41910E-06   -0.16303E-05  3968   0.584E-03    0.110E-02
RMM:   2    -0.230579399111E+04   -0.47639E-05   -0.14748E-05  2464   0.333E-03
 298 F= -.23261862E+04 E0= -.23261862E+04  d E =-.333097E-04  mag=     3.0000
       N       E                     dE             d eps       ncg     rms          rms(c)
DAV:   1    -0.230579397174E+04    0.14610E-04   -0.83455E-03  4392   0.999E-02    0.294E-02
RMM:   2    -0.230579401578E+04   -0.44041E-04   -0.48020E-04  5442   0.186E-02    0.170E-02
RMM:   3    -0.230579401813E+04   -0.23462E-05   -0.42039E-05  2846   0.814E-03
 299 F= -.23261862E+04 E0= -.23261862E+04  d E =-.238489E-04  mag=     3.0000
       N       E                     dE             d eps       ncg     rms          rms(c)
DAV:   1    -0.230579401373E+04    0.20542E-05   -0.31218E-05  4856   0.751E-03    0.840E-03
RMM:   2    -0.230579401417E+04   -0.44302E-06   -0.55730E-06  2351   0.239E-03
 300 F= -.23261862E+04 E0= -.23261862E+04  d E =-.197035E-04  mag=     3.0000
       N       E                     dE             d eps       ncg     rms          rms(c)
DAV:   1    -0.230579401365E+04    0.79046E-07   -0.71761E-03  4424   0.920E-02    0.259E-02
RMM:   2    -0.230579404965E+04   -0.36001E-04   -0.40142E-04  5388   0.166E-02    0.135E-02
RMM:   3    -0.230579404974E+04   -0.89203E-07   -0.33612E-05  2830   0.738E-03
 301 F= -.23261862E+04 E0= -.23261862E+04  d E =-.211547E-04  mag=     3.0000
       N       E                     dE             d eps       ncg     rms          rms(c)
DAV:   1    -0.230579404869E+04    0.95586E-06   -0.22899E-05  4552   0.617E-03    0.993E-03
RMM:   2    -0.230579405313E+04   -0.44374E-05   -0.12896E-05  2419   0.271E-03
 302 F= -.23261862E+04 E0= -.23261862E+04  d E =-.251746E-04  mag=     3.0000
       N       E                     dE             d eps       ncg     rms          rms(c)
DAV:   1    -0.230579402810E+04    0.20592E-04   -0.65491E-03  4392   0.884E-02    0.256E-02
RMM:   2    -0.230579406295E+04   -0.34849E-04   -0.37418E-04  5366   0.165E-02    0.168E-02
RMM:   3    -0.230579406453E+04   -0.15807E-05   -0.33599E-05  2837   0.726E-03
 303 F= -.23261863E+04 E0= -.23261863E+04  d E =-.196873E-04  mag=     3.0000
       N       E                     dE             d eps       ncg     rms          rms(c)
DAV:   1    -0.230579406046E+04    0.24902E-05   -0.75244E-06  3864   0.469E-03    0.683E-03
RMM:   2    -0.230579406054E+04   -0.75990E-07   -0.30952E-06  2311   0.228E-03
 304 F= -.23261863E+04 E0= -.23261862E+04  d E =-.159237E-04  mag=     3.0000
       N       E                     dE             d eps       ncg     rms          rms(c)
DAV:   1    -0.230579404047E+04    0.19986E-04   -0.44029E-03  4392   0.722E-02    0.209E-02
RMM:   2    -0.230579406248E+04   -0.22006E-04   -0.25045E-04  5128   0.133E-02    0.106E-02
RMM:   3    -0.230579406213E+04    0.35352E-06   -0.21202E-05  2809   0.627E-03
 305 F= -.23261863E+04 E0= -.23261863E+04  d E =-.175900E-04  mag=     3.0000
       N       E                     dE             d eps       ncg     rms          rms(c)
DAV:   1    -0.230579406372E+04   -0.12407E-05   -0.44089E-05  5080   0.766E-03    0.847E-03
RMM:   2    -0.230579406790E+04   -0.41789E-05   -0.11895E-05  2402   0.217E-03
 306 F= -.23261863E+04 E0= -.23261863E+04  d E =-.219778E-04  mag=     3.0000
       N       E                     dE             d eps       ncg     rms          rms(c)
DAV:   1    -0.230579404963E+04    0.14094E-04   -0.35033E-03  4392   0.648E-02    0.190E-02
RMM:   2    -0.230579406835E+04   -0.18720E-04   -0.20296E-04  4752   0.125E-02    0.125E-02
RMM:   3    -0.230579406931E+04   -0.96008E-06   -0.18603E-05  2803   0.590E-03
 307 F= -.23261863E+04 E0= -.23261863E+04  d E =-.941647E-05  mag=     3.0000
       N       E                     dE             d eps       ncg     rms          rms(c)
DAV:   1    -0.230579406841E+04   -0.58790E-07   -0.34397E-05  4840   0.728E-03    0.521E-03
RMM:   2    -0.230579406881E+04   -0.40239E-06   -0.37957E-06  2270   0.177E-03
 308 F= -.23261863E+04 E0= -.23261863E+04  d E =-.820835E-05  mag=     3.0000
       N       E                     dE             d eps       ncg     rms          rms(c)
DAV:   1    -0.230579406209E+04    0.63141E-05   -0.32919E-03  4396   0.626E-02    0.185E-02
RMM:   2    -0.230579407586E+04   -0.13768E-04   -0.15965E-04  4542   0.116E-02    0.851E-03
RMM:   3    -0.230579407566E+04    0.19756E-06   -0.13966E-05  2783   0.583E-03
 309 F= -.23261863E+04 E0= -.23261863E+04  d E =-.751480E-05  mag=     3.0000
       N       E                     dE             d eps       ncg     rms          rms(c)
DAV:   1    -0.230579407690E+04   -0.10365E-05   -0.13690E-04  4864   0.130E-02    0.763E-03
RMM:   2    -0.230579408055E+04   -0.36488E-05   -0.13320E-05  2418   0.299E-03
 310 F= -.23261863E+04 E0= -.23261863E+04  d E =-.122709E-04  mag=     3.0000
       N       E                     dE             d eps       ncg     rms          rms(c)
DAV:   1    -0.230579406309E+04    0.13803E-04   -0.27698E-03  4380   0.573E-02    0.153E-02
RMM:   2    -0.230579407597E+04   -0.12879E-04   -0.14033E-04  4216   0.111E-02    0.892E-03
RMM:   3    -0.230579407699E+04   -0.10124E-05   -0.13010E-05  2652   0.543E-03
 311 F= -.23261863E+04 E0= -.23261863E+04  d E =-.741747E-05  mag=     3.0000
       N       E                     dE             d eps       ncg     rms          rms(c)
DAV:   1    -0.230579407694E+04   -0.96593E-06   -0.27841E-05  4328   0.650E-03    0.450E-03
RMM:   2    -0.230579407735E+04   -0.40716E-06   -0.30456E-06  2231   0.175E-03
 312 F= -.23261863E+04 E0= -.23261863E+04  d E =-.677167E-05  mag=     3.0000
       N       E                     dE             d eps       ncg     rms          rms(c)
DAV:   1    -0.230579407542E+04    0.15194E-05   -0.17616E-03  4336   0.456E-02    0.131E-02
RMM:   2    -0.230579408179E+04   -0.63741E-05   -0.75576E-05  3520   0.841E-03
 313 F= -.23261863E+04 E0= -.23261863E+04  d E =-.130977E-04  mag=     3.0000
       N       E                     dE             d eps       ncg     rms          rms(c)
DAV:   1    -0.230579408167E+04   -0.62492E-05   -0.79816E-06  3472   0.547E-03    0.402E-03
RMM:   2    -0.230579408181E+04   -0.13554E-06   -0.18214E-06  2220   0.164E-03
 314 F= -.23261863E+04 E0= -.23261863E+04  d E =-.132936E-04  mag=     3.0000
       N       E                     dE             d eps       ncg     rms          rms(c)
DAV:   1    -0.230579408430E+04   -0.26350E-05   -0.11060E-03  4320   0.361E-02    0.116E-02
RMM:   2    -0.230579408791E+04   -0.36019E-05   -0.44078E-05  3048   0.708E-03
 315 F= -.23261863E+04 E0= -.23261863E+04  d E =-.545351E-05  mag=     3.0000
       N       E                     dE             d eps       ncg     rms          rms(c)
DAV:   1    -0.230579408826E+04   -0.39564E-05   -0.54670E-05  4368   0.921E-03    0.725E-03
RMM:   2    -0.230579409152E+04   -0.32614E-05   -0.94287E-06  2294   0.217E-03
 316 F= -.23261863E+04 E0= -.23261863E+04  d E =-.920117E-05  mag=     3.0000
       N       E                     dE             d eps       ncg     rms          rms(c)
DAV:   1    -0.230579408910E+04   -0.83513E-06   -0.82480E-04  4240   0.315E-02    0.897E-03
RMM:   2    -0.230579409207E+04   -0.29706E-05   -0.34661E-05  2769   0.605E-03
 317 F= -.23261863E+04 E0= -.23261863E+04  d E =-.221155E-05  mag=     3.0000
       N       E                     dE             d eps       ncg     rms          rms(c)
DAV:   1    -0.230579409224E+04   -0.31391E-05   -0.36776E-06  3232   0.412E-03    0.432E-03
RMM:   2    -0.230579409317E+04   -0.93426E-06   -0.30107E-06  2209   0.167E-03
 318 F= -.23261863E+04 E0= -.23261863E+04  d E =-.330749E-05  mag=     3.0000
       N       E                     dE             d eps       ncg     rms          rms(c)
DAV:   1    -0.230579408618E+04    0.60524E-05   -0.64548E-04  4192   0.276E-02    0.810E-03
RMM:   2    -0.230579408853E+04   -0.23452E-05   -0.28237E-05  2523   0.562E-03
 319 F= -.23261863E+04 E0= -.23261863E+04  d E =-.636251E-05  mag=     3.0000
       N       E                     dE             d eps       ncg     rms          rms(c)
DAV:   1    -0.230579408927E+04   -0.30869E-05   -0.58218E-06  2824   0.425E-03    0.363E-03
RMM:   2    -0.230579408985E+04   -0.57652E-06   -0.27308E-06  2144   0.235E-03
 320 F= -.23261863E+04 E0= -.23261863E+04  d E =-.698069E-05  mag=     3.0000
       N       E                     dE             d eps       ncg     rms          rms(c)
DAV:   1    -0.230579408877E+04    0.50414E-06   -0.85595E-07  2256   0.217E-03    0.133E-03
RMM:   2    -0.230579408879E+04   -0.26252E-07   -0.33581E-07  1499   0.850E-04
 321 F= -.23261863E+04 E0= -.23261863E+04  d E =-.645308E-05  mag=     3.0000
       N       E                     dE             d eps       ncg     rms          rms(c)
DAV:   1    -0.230579408243E+04    0.63328E-05   -0.45627E-04  4160   0.228E-02    0.662E-03
RMM:   2    -0.230579408423E+04   -0.17923E-05   -0.19854E-05  2358   0.432E-03
 322 F= -.23261863E+04 E0= -.23261863E+04  d E =-.323924E-05  mag=     3.0000
       N       E                     dE             d eps       ncg     rms          rms(c)
DAV:   1    -0.230579408460E+04   -0.21658E-05   -0.29049E-06  2496   0.310E-03    0.555E-03
RMM:   2    -0.230579408660E+04   -0.19963E-05   -0.47844E-06  2148   0.147E-03
 323 F= -.23261863E+04 E0= -.23261863E+04  d E =-.548555E-05  mag=     3.0000
       N       E                     dE             d eps       ncg     rms          rms(c)
DAV:   1    -0.230579408892E+04   -0.43235E-05   -0.32416E-04  4160   0.198E-02    0.615E-03
RMM:   2    -0.230579409006E+04   -0.11425E-05   -0.14110E-05  2302   0.404E-03
 324 F= -.23261863E+04 E0= -.23261863E+04  d E =-.445764E-05  mag=     3.0000
       N       E                     dE             d eps       ncg     rms          rms(c)
DAV:   1    -0.230579409045E+04   -0.15286E-05   -0.80011E-05  4688   0.101E-02    0.455E-03
RMM:   2    -0.230579409121E+04   -0.76176E-06   -0.56912E-06  2269   0.261E-03
 325 F= -.23261863E+04 E0= -.23261863E+04  d E =-.610270E-05  mag=     3.0000
