       N       E                     dE             d eps       ncg     rms          rms(c)
DAV:   1     0.120982417797E+05    0.12098E+05   -0.81999E+05  4560   0.139E+03
DAV:   2    -0.123830858040E+04   -0.13337E+05   -0.12818E+05  5440   0.318E+02
DAV:   3    -0.248867213051E+04   -0.12504E+04   -0.12412E+04  5480   0.101E+02
DAV:   4    -0.251468099077E+04   -0.26009E+02   -0.25899E+02  5680   0.178E+01
DAV:   5    -0.251537309737E+04   -0.69211E+00   -0.69092E+00  5720   0.249E+00    0.170E+02
RMM:   6    -0.146884051939E+04    0.10465E+04   -0.18854E+03  4489   0.374E+01    0.724E+01
RMM:   7    -0.163716494416E+04   -0.16832E+03   -0.24878E+02  5004   0.128E+01    0.506E+01
RMM:   8    -0.169237814647E+04   -0.55213E+02   -0.55140E+01  4936   0.774E+00    0.379E+01
RMM:   9    -0.181403800662E+04   -0.12166E+03   -0.62559E+01  4675   0.771E+00    0.256E+01
RMM:  10    -0.195939780769E+04   -0.14536E+03   -0.56538E+01  4725   0.685E+00    0.168E+01
RMM:  11    -0.208714635919E+04   -0.12775E+03   -0.68749E+01  4552   0.615E+00    0.130E+01
RMM:  12    -0.222930788489E+04   -0.14216E+03   -0.12186E+02  4515   0.776E+00    0.722E+00
RMM:  13    -0.229230366874E+04   -0.62996E+02   -0.60503E+01  4642   0.554E+00    0.411E+00
RMM:  14    -0.230613501327E+04   -0.13831E+02   -0.16818E+01  4813   0.329E+00    0.247E+00
RMM:  15    -0.230975278922E+04   -0.36178E+01   -0.42227E+00  5059   0.149E+00    0.147E+00
RMM:  16    -0.231093794259E+04   -0.11852E+01   -0.81361E-01  4877   0.663E-01    0.102E+00
RMM:  17    -0.231119414490E+04   -0.25620E+00   -0.12050E-01  5217   0.345E-01    0.782E-01
RMM:  18    -0.231133112063E+04   -0.13698E+00   -0.48245E-02  4591   0.168E-01    0.662E-01
RMM:  19    -0.231138045218E+04   -0.49332E-01   -0.28199E-02  4494   0.149E-01    0.463E-01
RMM:  20    -0.231141678835E+04   -0.36336E-01   -0.22322E-02  4613   0.120E-01    0.298E-01
RMM:  21    -0.231143226126E+04   -0.15473E-01   -0.12325E-02  4548   0.987E-02    0.198E-01
RMM:  22    -0.231143952258E+04   -0.72613E-02   -0.52372E-03  4671   0.559E-02    0.160E-01
RMM:  23    -0.231144296839E+04   -0.34458E-02   -0.21324E-03  4495   0.360E-02    0.134E-01
RMM:  24    -0.231144589154E+04   -0.29231E-02   -0.25631E-03  4514   0.330E-02    0.857E-02
RMM:  25    -0.231144647986E+04   -0.58832E-03   -0.21513E-03  4430   0.379E-02    0.554E-02
RMM:  26    -0.231144637501E+04    0.10485E-03   -0.68332E-04  4043   0.213E-02    0.408E-02
RMM:  27    -0.231144643630E+04   -0.61293E-04   -0.20704E-04  3775   0.125E-02    0.226E-02
RMM:  28    -0.231144642204E+04    0.14267E-04   -0.53851E-05  3315   0.679E-03    0.141E-02
RMM:  29    -0.231144646562E+04   -0.43585E-04   -0.17499E-05  2943   0.395E-03    0.128E-02
RMM:  30    -0.231144651471E+04   -0.49089E-04   -0.26039E-05  3021   0.431E-03    0.835E-03
RMM:  31    -0.231144654962E+04   -0.34916E-04   -0.25360E-05  3190   0.497E-03    0.506E-03
RMM:  32    -0.231144657288E+04   -0.23251E-04   -0.16581E-05  3029   0.428E-03    0.219E-03
RMM:  33    -0.231144657886E+04   -0.59811E-05   -0.85393E-06  2974   0.342E-03
   1 F= -.23315431E+04 E0= -.23315431E+04  d E =-.100260E-12  mag=     1.9998
       N       E                     dE             d eps       ncg     rms          rms(c)
DAV:   1    -0.231142427559E+04    0.22297E-01   -0.21749E+00  4480   0.667E-01    0.314E-01
RMM:   2    -0.231142361522E+04    0.66037E-03   -0.15872E-02  3880   0.461E-02    0.183E-01
RMM:   3    -0.231142301315E+04    0.60207E-03   -0.27246E-03  5043   0.174E-02    0.518E-02
RMM:   4    -0.231142299419E+04    0.18961E-04   -0.23884E-04  3372   0.799E-03    0.226E-02
RMM:   5    -0.231142299149E+04    0.26982E-05   -0.33732E-05  2766   0.328E-03
   2 F= -.23315191E+04 E0= -.23315191E+04  d E =-.221978E-17  mag=     1.9999
       N       E                     dE             d eps       ncg     rms          rms(c)
DAV:   1    -0.231143112567E+04   -0.81315E-02   -0.86511E+00  4480   0.129E+00    0.644E-01
RMM:   2    -0.231142700387E+04    0.41218E-02   -0.58010E-02  4047   0.917E-02    0.363E-01
RMM:   3    -0.231142482388E+04    0.21800E-02   -0.98631E-03  5291   0.399E-02    0.109E-01
RMM:   4    -0.231142480098E+04    0.22896E-04   -0.11667E-03  4327   0.138E-02    0.410E-02
RMM:   5    -0.231142477587E+04    0.25113E-04   -0.12124E-04  3201   0.680E-03    0.242E-02
RMM:   6    -0.231142476985E+04    0.60181E-05   -0.53100E-05  3115   0.386E-03
   3 F= -.23315218E+04 E0= -.23315218E+04  d E =-.531751E-16  mag=     2.0000
       N       E                     dE             d eps       ncg     rms          rms(c)
DAV:   1    -0.231143702538E+04   -0.12250E-01   -0.41553E+00  4560   0.814E-01    0.357E-01
RMM:   2    -0.231143608873E+04    0.93665E-03   -0.16382E-02  3924   0.452E-02    0.201E-01
RMM:   3    -0.231143540547E+04    0.68326E-03   -0.39164E-03  4364   0.196E-02    0.469E-02
RMM:   4    -0.231143538888E+04    0.16589E-04   -0.26571E-04  3381   0.122E-02    0.269E-02
RMM:   5    -0.231143538695E+04    0.19288E-05   -0.37344E-05  2845   0.291E-03
   4 F= -.23315320E+04 E0= -.23315320E+04  d E =-.148467E-13  mag=     2.0000
       N       E                     dE             d eps       ncg     rms          rms(c)
DAV:   1    -0.231144559707E+04   -0.10208E-01   -0.82583E+00  4480   0.111E+00    0.493E-01
RMM:   2    -0.231144458906E+04    0.10080E-02   -0.38492E-02  3997   0.679E-02    0.285E-01
RMM:   3    -0.231144311365E+04    0.14754E-02   -0.77097E-03  4758   0.326E-02    0.665E-02
RMM:   4    -0.231144313376E+04   -0.20111E-04   -0.64928E-04  3797   0.163E-02    0.402E-02
RMM:   5    -0.231144312178E+04    0.11975E-04   -0.94450E-05  3059   0.433E-03    0.255E-02
RMM:   6    -0.231144311896E+04    0.28268E-05   -0.26374E-05  2894   0.338E-03
   5 F= -.23315396E+04 E0= -.23315396E+04  d E =-.517318E-13  mag=     2.0000
       N       E                     dE             d eps       ncg     rms          rms(c)
DAV:   1    -0.231142777420E+04    0.15348E-01   -0.42786E+00  4640   0.816E-01    0.413E-01
RMM:   2    -0.231142648943E+04    0.12848E-02   -0.25221E-02  3973   0.588E-02    0.236E-01
RMM:   3    -0.231142552454E+04    0.96488E-03   -0.44344E-03  4858   0.226E-02    0.804E-02
RMM:   4    -0.231142543714E+04    0.87403E-04   -0.59144E-04  3904   0.125E-02    0.331E-02
RMM:   5    -0.231142542912E+04    0.80232E-05   -0.68857E-05  2901   0.471E-03
   6 F= -.23315216E+04 E0= -.23315216E+04  d E =-.368191E-11  mag=     2.0000
       N       E                     dE             d eps       ncg     rms          rms(c)
DAV:   1    -0.231141945112E+04    0.59860E-02   -0.88927E+00  4480   0.135E+00    0.733E-01
RMM:   2    -0.231141168083E+04    0.77703E-02   -0.73991E-02  4125   0.102E-01    0.405E-01
RMM:   3    -0.231140899559E+04    0.26852E-02   -0.11026E-02  5062   0.436E-02    0.182E-01
RMM:   4    -0.231140853749E+04    0.45810E-03   -0.30033E-03  4428   0.195E-02    0.625E-02
RMM:   5    -0.231140848960E+04    0.47890E-04   -0.26035E-04  3252   0.122E-02    0.332E-02
RMM:   6    -0.231140848119E+04    0.84051E-05   -0.10038E-04  3119   0.417E-03    0.243E-02
RMM:   7    -0.231140848077E+04    0.42716E-06   -0.15850E-05  2863   0.346E-03
   7 F= -.23315055E+04 E0= -.23315055E+04  d E =-.979535E-13  mag=     2.0000
       N       E                     dE             d eps       ncg     rms          rms(c)
DAV:   1    -0.231141793881E+04   -0.94576E-02   -0.38716E+00  4560   0.856E-01    0.465E-01
RMM:   2    -0.231141680305E+04    0.11358E-02   -0.30162E-02  4029   0.634E-02    0.262E-01
RMM:   3    -0.231141609980E+04    0.70325E-03   -0.19010E-03  4146   0.253E-02    0.163E-01
RMM:   4    -0.231141618341E+04   -0.83615E-04   -0.12020E-03  3873   0.127E-02    0.104E-01
RMM:   5    -0.231141623852E+04   -0.55102E-04   -0.17227E-04  3114   0.110E-02    0.919E-02
RMM:   6    -0.231141633896E+04   -0.10045E-03   -0.43820E-04  3518   0.772E-03    0.649E-02
RMM:   7    -0.231141640042E+04   -0.61461E-04   -0.34452E-04  3218   0.791E-03    0.437E-02
RMM:   8    -0.231141640696E+04   -0.65348E-05   -0.12171E-04  2950   0.468E-03    0.299E-02
RMM:   9    -0.231141640587E+04    0.10901E-05   -0.39289E-05  2852   0.329E-03
   8 F= -.23315144E+04 E0= -.23315144E+04  d E =-.368431E-11  mag=     2.0000
       N       E                     dE             d eps       ncg     rms          rms(c)
DAV:   1    -0.231144136399E+04   -0.24957E-01   -0.84883E+00  4560   0.119E+00    0.684E-01
RMM:   2    -0.231144039128E+04    0.97272E-03   -0.57263E-02  4068   0.896E-02    0.427E-01
RMM:   3    -0.231143862103E+04    0.17702E-02   -0.96362E-03  4989   0.408E-02    0.239E-01
RMM:   4    -0.231143892357E+04   -0.30255E-03   -0.18932E-03  4206   0.161E-02    0.187E-01
RMM:   5    -0.231143908774E+04   -0.16417E-03   -0.47240E-04  3451   0.117E-02    0.161E-01
RMM:   6    -0.231143937386E+04   -0.28612E-03   -0.10216E-03  3885   0.119E-02    0.121E-01
RMM:   7    -0.231143954081E+04   -0.16694E-03   -0.51496E-04  3391   0.102E-02    0.970E-02
RMM:   8    -0.231143954131E+04   -0.50032E-06   -0.47118E-04  3451   0.822E-03    0.519E-02
RMM:   9    -0.231143958550E+04   -0.44192E-04   -0.27572E-04  3243   0.779E-03    0.316E-02
RMM:  10    -0.231143959062E+04   -0.51181E-05   -0.75576E-05  2929   0.470E-03
   9 F= -.23315348E+04 E0= -.23315348E+04  d E =-.438556E-12  mag=     2.0000
       N       E                     dE             d eps       ncg     rms          rms(c)
DAV:   1    -0.231145039081E+04   -0.10805E-01   -0.39684E+00  4480   0.755E-01    0.368E-01
RMM:   2    -0.231145099028E+04   -0.59947E-03   -0.17236E-02  3936   0.475E-02    0.230E-01
RMM:   3    -0.231145062389E+04    0.36639E-03   -0.24651E-03  4395   0.220E-02    0.104E-01
RMM:   4    -0.231145071131E+04   -0.87423E-04   -0.53769E-04  3630   0.929E-03    0.697E-02
RMM:   5    -0.231145073253E+04   -0.21219E-04   -0.74833E-05  2863   0.503E-03    0.593E-02
RMM:   6    -0.231145076136E+04   -0.28830E-04   -0.81450E-05  2941   0.394E-03    0.478E-02
RMM:   7    -0.231145078055E+04   -0.19192E-04   -0.44511E-05  2784   0.334E-03    0.379E-02
RMM:   8    -0.231145078851E+04   -0.79578E-05   -0.52740E-05  2862   0.326E-03
  10 F= -.23315453E+04 E0= -.23315453E+04  d E =-.554706E-12  mag=     2.0000
       N       E                     dE             d eps       ncg     rms          rms(c)
DAV:   1    -0.231143156632E+04    0.19214E-01   -0.77631E+00  4480   0.108E+00    0.568E-01
RMM:   2    -0.231143207360E+04   -0.50728E-03   -0.46072E-02  4175   0.739E-02    0.339E-01
RMM:   3    -0.231143081484E+04    0.12588E-02   -0.61870E-03  4962   0.365E-02    0.152E-01
RMM:   4    -0.231143089717E+04   -0.82329E-04   -0.12949E-03  4080   0.127E-02    0.953E-02
RMM:   5    -0.231143087882E+04    0.18346E-04   -0.21649E-04  3071   0.908E-03    0.678E-02
RMM:   6    -0.231143085997E+04    0.18853E-04   -0.12680E-04  3078   0.486E-03    0.367E-02
RMM:   7    -0.231143087648E+04   -0.16513E-04   -0.24894E-05  2829   0.344E-03    0.313E-02
RMM:   8    -0.231143087677E+04   -0.28822E-06   -0.11427E-05  2660   0.200E-03
  11 F= -.23315294E+04 E0= -.23315294E+04  d E =-.118109E-11  mag=     2.0000
       N       E                     dE             d eps       ncg     rms          rms(c)
DAV:   1    -0.231143087681E+04   -0.32503E-06   -0.39428E+00  4400   0.828E-01    0.379E-01
RMM:   2    -0.231143160723E+04   -0.73042E-03   -0.25663E-02  3939   0.545E-02    0.231E-01
RMM:   3    -0.231143068423E+04    0.92300E-03   -0.35618E-03  5173   0.253E-02    0.816E-02
RMM:   4    -0.231143070392E+04   -0.19698E-04   -0.30729E-04  3562   0.755E-03    0.428E-02
RMM:   5    -0.231143071669E+04   -0.12770E-04   -0.53129E-05  2874   0.412E-03    0.347E-02
RMM:   6    -0.231143071228E+04    0.44163E-05   -0.21836E-05  2793   0.281E-03
  12 F= -.23315263E+04 E0= -.23315263E+04  d E =-.164529E-13  mag=     2.0000
       N       E                     dE             d eps       ncg     rms          rms(c)
DAV:   1    -0.231143115425E+04   -0.43756E-03   -0.86443E+00  4480   0.121E+00    0.637E-01
RMM:   2    -0.231142752641E+04    0.36278E-02   -0.73065E-02  4192   0.102E-01    0.358E-01
RMM:   3    -0.231142450514E+04    0.30213E-02   -0.12953E-02  5584   0.509E-02    0.143E-01
RMM:   4    -0.231142428614E+04    0.21900E-03   -0.93267E-04  4408   0.123E-02    0.736E-02
RMM:   5    -0.231142419981E+04    0.86324E-04   -0.25188E-04  3500   0.879E-03    0.370E-02
RMM:   6    -0.231142421437E+04   -0.14553E-04   -0.49772E-05  3017   0.421E-03    0.296E-02
RMM:   7    -0.231142421372E+04    0.64731E-06   -0.15227E-05  2802   0.300E-03
  13 F= -.23315218E+04 E0= -.23315218E+04  d E =-.175625E-13  mag=     2.0000
       N       E                     dE             d eps       ncg     rms          rms(c)
DAV:   1    -0.231144455752E+04   -0.20343E-01   -0.24896E+00  4480   0.716E-01    0.381E-01
RMM:   2    -0.231144386329E+04    0.69423E-03   -0.28032E-02  3942   0.603E-02    0.216E-01
RMM:   3    -0.231144291412E+04    0.94917E-03   -0.36760E-03  5104   0.282E-02    0.831E-02
RMM:   4    -0.231144287927E+04    0.34856E-04   -0.49517E-04  3699   0.812E-03    0.399E-02
RMM:   5    -0.231144285719E+04    0.22077E-04   -0.65024E-05  3023   0.501E-03    0.177E-02
RMM:   6    -0.231144285992E+04   -0.27260E-05   -0.13966E-05  2761   0.284E-03
  14 F= -.23315391E+04 E0= -.23315391E+04  d E =-.438428E-11  mag=     2.0000
       N       E                     dE             d eps       ncg     rms          rms(c)
DAV:   1    -0.231144377296E+04   -0.91577E-03   -0.12597E+00  4720   0.459E-01    0.407E-01
RMM:   2    -0.231144264935E+04    0.11236E-02   -0.88746E-03  3877   0.358E-02    0.231E-01
RMM:   3    -0.231144240795E+04    0.24139E-03   -0.11584E-03  4176   0.140E-02    0.102E-01
RMM:   4    -0.231144238318E+04    0.24770E-04   -0.36656E-04  3690   0.847E-03    0.284E-02
RMM:   5    -0.231144238036E+04    0.28241E-05   -0.33840E-05  2820   0.398E-03
  15 F= -.23315393E+04 E0= -.23315393E+04  d E =-.384179E-11  mag=     2.0000
       N       E                     dE             d eps       ncg     rms          rms(c)
DAV:   1    -0.231143896700E+04    0.34162E-02   -0.61487E-01  4480   0.315E-01    0.273E-01
RMM:   2    -0.231143879286E+04    0.17414E-03   -0.40142E-03  3748   0.224E-02    0.159E-01
RMM:   3    -0.231143870619E+04    0.86664E-04   -0.60266E-04  3700   0.975E-03    0.514E-02
RMM:   4    -0.231143870772E+04   -0.15263E-05   -0.11482E-04  2987   0.545E-03    0.214E-02
RMM:   5    -0.231143870476E+04    0.29612E-05   -0.15929E-05  2639   0.260E-03
  16 F= -.23315353E+04 E0= -.23315353E+04  d E =-.206408E-10  mag=     2.0000
       N       E                     dE             d eps       ncg     rms          rms(c)
DAV:   1    -0.231145268105E+04   -0.13973E-01   -0.12157E+00  4400   0.449E-01    0.355E-01
RMM:   2    -0.231145285561E+04   -0.17456E-03   -0.70205E-03  3796   0.296E-02    0.212E-01
RMM:   3    -0.231145272591E+04    0.12970E-03   -0.11338E-03  4024   0.127E-02    0.432E-02
RMM:   4    -0.231145272339E+04    0.25210E-05   -0.11503E-04  2898   0.697E-03    0.251E-02
RMM:   5    -0.231145271952E+04    0.38719E-05   -0.20698E-05  2625   0.254E-03
  17 F= -.23315492E+04 E0= -.23315492E+04  d E =-.237298E-11  mag=     2.0000
       N       E                     dE             d eps       ncg     rms          rms(c)
DAV:   1    -0.231142905272E+04    0.23671E-01   -0.65170E-01  5000   0.329E-01    0.380E-01
RMM:   2    -0.231142743982E+04    0.16129E-02   -0.10449E-02  3852   0.354E-02    0.205E-01
RMM:   3    -0.231142700123E+04    0.43859E-03   -0.12365E-03  4073   0.167E-02    0.999E-02
RMM:   4    -0.231142694439E+04    0.56846E-04   -0.42032E-04  3490   0.835E-03    0.294E-02
RMM:   5    -0.231142693471E+04    0.96796E-05   -0.41960E-05  2843   0.472E-03
  18 F= -.23315234E+04 E0= -.23315234E+04  d E =-.235117E-11  mag=     2.0000
       N       E                     dE             d eps       ncg     rms          rms(c)
DAV:   1    -0.231144773466E+04   -0.20790E-01   -0.13395E+00  5120   0.465E-01    0.618E-01
RMM:   2    -0.231144188550E+04    0.58492E-02   -0.27755E-02  3993   0.610E-02    0.321E-01
RMM:   3    -0.231144059033E+04    0.12952E-02   -0.33896E-03  4621   0.307E-02    0.161E-01
RMM:   4    -0.231144038648E+04    0.20385E-03   -0.12643E-03  4222   0.138E-02    0.521E-02
RMM:   5    -0.231144034525E+04    0.41226E-04   -0.11341E-04  3215   0.668E-03    0.174E-02
RMM:   6    -0.231144034197E+04    0.32796E-05   -0.29456E-05  2871   0.300E-03
  19 F= -.23315370E+04 E0= -.23315370E+04  d E =-.184675E-10  mag=     2.0000
       N       E                     dE             d eps       ncg     rms          rms(c)
DAV:   1    -0.231144993692E+04   -0.95917E-02   -0.68988E-01  5000   0.391E-01    0.472E-01
RMM:   2    -0.231144567673E+04    0.42602E-02   -0.21343E-02  4010   0.497E-02    0.227E-01
RMM:   3    -0.231144484860E+04    0.82813E-03   -0.20884E-03  4433   0.246E-02    0.123E-01
RMM:   4    -0.231144476759E+04    0.81015E-04   -0.74760E-04  3936   0.995E-03    0.482E-02
RMM:   5    -0.231144474496E+04    0.22626E-04   -0.74904E-05  3141   0.561E-03    0.179E-02
RMM:   6    -0.231144474441E+04    0.55532E-06   -0.19668E-05  2782   0.276E-03
  20 F= -.23315410E+04 E0= -.23315410E+04  d E =-.370138E-11  mag=     2.0000
       N       E                     dE             d eps       ncg     rms          rms(c)
DAV:   1    -0.231143117005E+04    0.13575E-01   -0.13176E+00  5080   0.542E-01    0.593E-01
RMM:   2    -0.231142623817E+04    0.49319E-02   -0.28296E-02  4082   0.615E-02    0.311E-01
RMM:   3    -0.231142502191E+04    0.12163E-02   -0.29826E-03  4856   0.268E-02    0.160E-01
RMM:   4    -0.231142485120E+04    0.17071E-03   -0.11485E-03  4098   0.122E-02    0.530E-02
RMM:   5    -0.231142481334E+04    0.37856E-04   -0.11918E-04  3239   0.702E-03    0.223E-02
RMM:   6    -0.231142480979E+04    0.35515E-05   -0.29334E-05  2892   0.302E-03
  21 F= -.23315217E+04 E0= -.23315217E+04  d E =-.364188E-11  mag=     2.0000
       N       E                     dE             d eps       ncg     rms          rms(c)
DAV:   1    -0.231143603408E+04   -0.11221E-01   -0.60075E-01  4680   0.363E-01    0.264E-01
RMM:   2    -0.231143577254E+04    0.26154E-03   -0.42977E-03  3859   0.257E-02    0.153E-01
RMM:   3    -0.231143566158E+04    0.11095E-03   -0.57400E-04  3897   0.965E-03    0.625E-02
RMM:   4    -0.231143565998E+04    0.16050E-05   -0.14693E-04  3209   0.608E-03    0.247E-02
RMM:   5    -0.231143565927E+04    0.71181E-06   -0.20339E-05  2704   0.305E-03
  22 F= -.23315323E+04 E0= -.23315323E+04  d E =-.263975E-11  mag=     2.0000
       N       E                     dE             d eps       ncg     rms          rms(c)
DAV:   1    -0.231145242672E+04   -0.16767E-01   -0.12355E+00  4640   0.519E-01    0.404E-01
RMM:   2    -0.231145159772E+04    0.82900E-03   -0.97441E-03  3937   0.403E-02    0.232E-01
RMM:   3    -0.231145130649E+04    0.29123E-03   -0.13888E-03  4382   0.166E-02    0.893E-02
RMM:   4    -0.231145129542E+04    0.11065E-04   -0.39417E-04  3719   0.891E-03    0.338E-02
RMM:   5    -0.231145128605E+04    0.93745E-05   -0.37943E-05  2946   0.420E-03
  23 F= -.23315478E+04 E0= -.23315478E+04  d E =-.459694E-11  mag=     2.0000
       N       E                     dE             d eps       ncg     rms          rms(c)
DAV:   1    -0.231143928567E+04    0.12010E-01   -0.61455E-01  4760   0.367E-01    0.273E-01
RMM:   2    -0.231143901258E+04    0.27309E-03   -0.51665E-03  3858   0.279E-02    0.157E-01
RMM:   3    -0.231143886727E+04    0.14531E-03   -0.59195E-04  3968   0.111E-02    0.555E-02
RMM:   4    -0.231143886651E+04    0.76002E-06   -0.13740E-04  3277   0.582E-03    0.195E-02
RMM:   5    -0.231143886327E+04    0.32423E-05   -0.13931E-05  2661   0.319E-03
  24 F= -.23315354E+04 E0= -.23315354E+04  d E =-.396707E-11  mag=     2.0000
       N       E                     dE             d eps       ncg     rms          rms(c)
DAV:   1    -0.231144924751E+04   -0.10381E-01   -0.12459E+00  4560   0.511E-01    0.329E-01
RMM:   2    -0.231144934733E+04   -0.99824E-04   -0.65689E-03  3900   0.342E-02    0.197E-01
RMM:   3    -0.231144921589E+04    0.13144E-03   -0.11244E-03  4192   0.154E-02    0.225E-02
RMM:   4    -0.231144922362E+04   -0.77294E-05   -0.74702E-05  3072   0.637E-03
  25 F= -.23315458E+04 E0= -.23315458E+04  d E =-.446406E-11  mag=     2.0000
       N       E                     dE             d eps       ncg     rms          rms(c)
DAV:   1    -0.231143201135E+04    0.17205E-01   -0.61715E-01  5040   0.366E-01    0.322E-01
RMM:   2    -0.231143113057E+04    0.88077E-03   -0.80137E-03  3886   0.347E-02    0.181E-01
RMM:   3    -0.231143076342E+04    0.36716E-03   -0.11302E-03  4283   0.161E-02    0.621E-02
RMM:   4    -0.231143074647E+04    0.16941E-04   -0.22375E-04  3487   0.664E-03    0.238E-02
RMM:   5    -0.231143073779E+04    0.86814E-05   -0.30899E-05  2802   0.427E-03
  26 F= -.23315280E+04 E0= -.23315280E+04  d E =-.136686E-10  mag=     2.0000
       N       E                     dE             d eps       ncg     rms          rms(c)
DAV:   1    -0.231144620957E+04   -0.15463E-01   -0.12608E+00  5040   0.500E-01    0.591E-01
RMM:   2    -0.231144093105E+04    0.52785E-02   -0.23755E-02  4004   0.543E-02    0.304E-01
RMM:   3    -0.231143974792E+04    0.11831E-02   -0.26910E-03  4299   0.272E-02    0.130E-01
RMM:   4    -0.231143966040E+04    0.87525E-04   -0.10141E-03  4418   0.119E-02    0.425E-02
RMM:   5    -0.231143963130E+04    0.29102E-04   -0.91770E-05  3025   0.658E-03    0.224E-02
RMM:   6    -0.231143962767E+04    0.36269E-05   -0.42947E-05  2960   0.310E-03
  27 F= -.23315356E+04 E0= -.23315356E+04  d E =-.306195E-11  mag=     2.0000
       N       E                     dE             d eps       ncg     rms          rms(c)
DAV:   1    -0.231145245365E+04   -0.12822E-01   -0.60579E-01  4560   0.319E-01    0.302E-01
RMM:   2    -0.231145177243E+04    0.68121E-03   -0.52416E-03  3796   0.258E-02    0.169E-01
RMM:   3    -0.231145156302E+04    0.20942E-03   -0.75284E-04  3960   0.110E-02    0.595E-02
RMM:   4    -0.231145155318E+04    0.98382E-05   -0.13819E-04  3248   0.616E-03    0.255E-02
RMM:   5    -0.231145155018E+04    0.29959E-05   -0.21607E-05  2733   0.288E-03
  28 F= -.23315478E+04 E0= -.23315478E+04  d E =-.418613E-11  mag=     2.0000
       N       E                     dE             d eps       ncg     rms          rms(c)
DAV:   1    -0.231143829754E+04    0.13256E-01   -0.11804E+00  4560   0.451E-01    0.375E-01
RMM:   2    -0.231143771705E+04    0.58049E-03   -0.80736E-03  3879   0.329E-02    0.213E-01
RMM:   3    -0.231143745498E+04    0.26207E-03   -0.93735E-04  3927   0.131E-02    0.684E-02
RMM:   4    -0.231143747138E+04   -0.16400E-04   -0.21743E-04  3361   0.730E-03    0.280E-02
RMM:   5    -0.231143746827E+04    0.31062E-05   -0.25024E-05  2787   0.330E-03
  29 F= -.23315343E+04 E0= -.23315343E+04  d E =-.391312E-11  mag=     2.0000
       N       E                     dE             d eps       ncg     rms          rms(c)
DAV:   1    -0.231144957616E+04   -0.12105E-01   -0.59743E-01  4480   0.330E-01    0.253E-01
RMM:   2    -0.231144948838E+04    0.87779E-04   -0.35756E-03  3795   0.239E-02    0.149E-01
RMM:   3    -0.231144938326E+04    0.10512E-03   -0.52938E-04  4248   0.986E-03    0.487E-02
RMM:   4    -0.231144938355E+04   -0.28407E-06   -0.10125E-04  2962   0.491E-03    0.256E-02
RMM:   5    -0.231144938438E+04   -0.83113E-06   -0.16147E-05  2620   0.278E-03
  30 F= -.23315461E+04 E0= -.23315461E+04  d E =-.966784E-12  mag=     2.0000
       N       E                     dE             d eps       ncg     rms          rms(c)
DAV:   1    -0.231143981241E+04    0.95711E-02   -0.12136E+00  4480   0.457E-01    0.328E-01
RMM:   2    -0.231144016168E+04   -0.34926E-03   -0.65707E-03  3962   0.323E-02    0.202E-01
RMM:   3    -0.231144002232E+04    0.13935E-03   -0.10190E-03  4684   0.154E-02    0.931E-02
RMM:   4    -0.231144002765E+04   -0.53241E-05   -0.25860E-04  3403   0.680E-03    0.540E-02
RMM:   5    -0.231144003892E+04   -0.11269E-04   -0.45457E-05  2856   0.411E-03    0.449E-02
RMM:   6    -0.231144004520E+04   -0.62857E-05   -0.49348E-05  2872   0.329E-03
  31 F= -.23315364E+04 E0= -.23315364E+04  d E =-.116493E-10  mag=     2.0000
       N       E                     dE             d eps       ncg     rms          rms(c)
DAV:   1    -0.231146707698E+04   -0.27038E-01   -0.57027E-01  4480   0.309E-01    0.210E-01
RMM:   2    -0.231146722606E+04   -0.14909E-03   -0.45149E-03  4151   0.251E-02    0.132E-01
RMM:   3    -0.231146717963E+04    0.46432E-04   -0.50420E-04  3732   0.115E-02    0.865E-02
RMM:   4    -0.231146723538E+04   -0.55747E-04   -0.20804E-04  3232   0.569E-03    0.659E-02
RMM:   5    -0.231146726188E+04   -0.26506E-04   -0.58174E-05  2819   0.449E-03    0.574E-02
RMM:   6    -0.231146728823E+04   -0.26342E-04   -0.97178E-05  2956   0.413E-03    0.399E-02
RMM:   7    -0.231146731654E+04   -0.28318E-04   -0.16305E-04  3067   0.529E-03    0.216E-02
RMM:   8    -0.231146731840E+04   -0.18563E-05   -0.33544E-05  2749   0.330E-03
  32 F= -.23315625E+04 E0= -.23315625E+04  d E =-.126825E-11  mag=     2.0000
       N       E                     dE             d eps       ncg     rms          rms(c)
DAV:   1    -0.231142413876E+04    0.43178E-01   -0.10395E+00  4480   0.351E-01    0.272E-01
RMM:   2    -0.231142471681E+04   -0.57805E-03   -0.82109E-03  4437   0.298E-02    0.186E-01
RMM:   3    -0.231142458531E+04    0.13150E-03   -0.84918E-04  3732   0.159E-02    0.134E-01
RMM:   4    -0.231142466562E+04   -0.80309E-04   -0.50357E-04  3618   0.847E-03    0.963E-02
RMM:   5    -0.231142474105E+04   -0.75424E-04   -0.12093E-04  2934   0.591E-03    0.834E-02
RMM:   6    -0.231142477069E+04   -0.29645E-04   -0.94585E-05  2946   0.433E-03    0.674E-02
RMM:   7    -0.231142485127E+04   -0.80580E-04   -0.24638E-04  3188   0.646E-03    0.553E-02
RMM:   8    -0.231142486319E+04   -0.11922E-04   -0.94609E-05  2904   0.472E-03    0.375E-02
RMM:   9    -0.231142486820E+04   -0.50077E-05   -0.14903E-04  3063   0.512E-03    0.135E-02
RMM:  10    -0.231142487056E+04   -0.23603E-05   -0.30615E-05  2765   0.327E-03
  33 F= -.23315228E+04 E0= -.23315228E+04  d E =-.166264E-10  mag=     2.0000
       N       E                     dE             d eps       ncg     rms          rms(c)
DAV:   1    -0.231142912121E+04   -0.42530E-02   -0.52159E-01  4400   0.233E-01    0.160E-01
RMM:   2    -0.231142941589E+04   -0.29468E-03   -0.20031E-03  3635   0.149E-02    0.118E-01
RMM:   3    -0.231142949039E+04   -0.74492E-04   -0.32634E-04  3302   0.866E-03    0.924E-02
RMM:   4    -0.231142953863E+04   -0.48247E-04   -0.19546E-04  3006   0.534E-03    0.719E-02
RMM:   5    -0.231142957115E+04   -0.32519E-04   -0.83937E-05  2902   0.459E-03    0.541E-02
RMM:   6    -0.231142958704E+04   -0.15886E-04   -0.61835E-05  2850   0.386E-03    0.379E-02
RMM:   7    -0.231142961370E+04   -0.26660E-04   -0.83482E-05  2929   0.407E-03    0.271E-02
RMM:   8    -0.231142961805E+04   -0.43494E-05   -0.44119E-05  2780   0.329E-03
  34 F= -.23315285E+04 E0= -.23315285E+04  d E =-.720065E-11  mag=     2.0000
       N       E                     dE             d eps       ncg     rms          rms(c)
DAV:   1    -0.231145906874E+04   -0.29455E-01   -0.10513E+00  4480   0.361E-01    0.273E-01
RMM:   2    -0.231145943489E+04   -0.36615E-03   -0.89532E-03  4312   0.325E-02    0.169E-01
RMM:   3    -0.231145934309E+04    0.91805E-04   -0.78866E-04  4044   0.141E-02    0.114E-01
RMM:   4    -0.231145938375E+04   -0.40663E-04   -0.36760E-04  3568   0.715E-03    0.704E-02
RMM:   5    -0.231145937548E+04    0.82695E-05   -0.11484E-04  3005   0.597E-03    0.361E-02
RMM:   6    -0.231145938146E+04   -0.59827E-05   -0.29334E-05  2802   0.316E-03
  35 F= -.23315535E+04 E0= -.23315535E+04  d E =-.262071E-11  mag=     2.0000
       N       E                     dE             d eps       ncg     rms          rms(c)
DAV:   1    -0.231149484896E+04   -0.35473E-01   -0.52433E-01  4400   0.245E-01    0.229E-01
RMM:   2    -0.231149469464E+04    0.15432E-03   -0.69578E-03  5121   0.270E-02    0.136E-01
RMM:   3    -0.231149447661E+04    0.21803E-03   -0.59369E-04  3611   0.131E-02    0.833E-02
RMM:   4    -0.231149445569E+04    0.20912E-04   -0.32976E-04  3734   0.638E-03    0.320E-02
RMM:   5    -0.231149445000E+04    0.56983E-05   -0.41590E-05  2877   0.474E-03
  36 F= -.23315926E+04 E0= -.23315926E+04  d E =-.781226E-12  mag=     2.0000
       N       E                     dE             d eps       ncg     rms          rms(c)
DAV:   1    -0.231139510785E+04    0.99348E-01   -0.10617E+00  4480   0.360E-01    0.284E-01
RMM:   2    -0.231139481306E+04    0.29479E-03   -0.10371E-02  4801   0.316E-02    0.165E-01
RMM:   3    -0.231139445024E+04    0.36282E-03   -0.12057E-03  4142   0.183E-02    0.934E-02
RMM:   4    -0.231139441202E+04    0.38221E-04   -0.47912E-04  4094   0.734E-03    0.350E-02
RMM:   5    -0.231139440704E+04    0.49776E-05   -0.47894E-05  2909   0.473E-03
  37 F= -.23314894E+04 E0= -.23314894E+04  d E =-.401453E-12  mag=     2.0000
