       N       E                     dE             d eps       ncg     rms          rms(c)
DAV:   1     0.126681668399E+05    0.12668E+05   -0.82622E+05  4440   0.143E+03
DAV:   2    -0.107183429693E+04   -0.13740E+05   -0.13164E+05  5280   0.329E+02
DAV:   3    -0.246742826109E+04   -0.13956E+04   -0.13829E+04  5344   0.110E+02
DAV:   4    -0.251137748797E+04   -0.43949E+02   -0.43731E+02  6664   0.290E+01
DAV:   5    -0.251219945080E+04   -0.82196E+00   -0.82053E+00  5544   0.322E+00    0.170E+02
RMM:   6    -0.146902059471E+04    0.10432E+04   -0.19399E+03  4381   0.386E+01    0.722E+01
RMM:   7    -0.164484388516E+04   -0.17582E+03   -0.28617E+02  4972   0.139E+01    0.485E+01
RMM:   8    -0.170134599003E+04   -0.56502E+02   -0.42043E+01  5259   0.692E+00    0.394E+01
RMM:   9    -0.181204781726E+04   -0.11070E+03   -0.65096E+01  4981   0.780E+00    0.339E+01
RMM:  10    -0.193634732533E+04   -0.12430E+03   -0.54490E+01  5236   0.707E+00    0.198E+01
RMM:  11    -0.205171692789E+04   -0.11537E+03   -0.53108E+01  4829   0.574E+00    0.163E+01
RMM:  12    -0.215352848307E+04   -0.10181E+03   -0.61590E+01  4568   0.599E+00    0.108E+01
RMM:  13    -0.226304353651E+04   -0.10952E+03   -0.99373E+01  4533   0.707E+00    0.844E+00
RMM:  14    -0.229513507922E+04   -0.32092E+02   -0.33352E+01  4549   0.465E+00    0.575E+00
RMM:  15    -0.230521080957E+04   -0.10076E+02   -0.12214E+01  4856   0.241E+00    0.598E+00
RMM:  16    -0.230547088115E+04   -0.26007E+00   -0.11503E+00  5320   0.100E+00    0.537E+00
RMM:  17    -0.230584254901E+04   -0.37167E+00   -0.32057E-01  4758   0.334E-01    0.492E+00
RMM:  18    -0.230738674584E+04   -0.15442E+01   -0.14105E+00  4538   0.678E-01    0.320E+00
RMM:  19    -0.230789921769E+04   -0.51247E+00   -0.38863E-01  4664   0.405E-01    0.209E+00
RMM:  20    -0.230821341541E+04   -0.31420E+00   -0.23430E-01  4609   0.289E-01    0.101E+00
RMM:  21    -0.230834856266E+04   -0.13515E+00   -0.12789E-01  5036   0.221E-01    0.900E-01
RMM:  22    -0.230839732029E+04   -0.48758E-01   -0.34475E-02  4937   0.125E-01    0.818E-01
RMM:  23    -0.230839985591E+04   -0.25356E-02   -0.68320E-03  5510   0.398E-02    0.867E-01
RMM:  24    -0.230843868595E+04   -0.38830E-01   -0.19403E-02  4472   0.765E-02    0.525E-01
RMM:  25    -0.230845791879E+04   -0.19233E-01   -0.48249E-03  4473   0.468E-02    0.531E-01
RMM:  26    -0.230847178264E+04   -0.13864E-01   -0.56814E-03  4924   0.419E-02    0.743E-01
RMM:  27    -0.230847173644E+04    0.46198E-04   -0.46783E-04  4163   0.155E-02    0.742E-01
RMM:  28    -0.230847196049E+04   -0.22405E-03   -0.10544E-03  4221   0.167E-02    0.848E-01
RMM:  29    -0.230847571814E+04   -0.37576E-02   -0.36048E-04  4272   0.136E-02    0.805E-01
RMM:  30    -0.230849500278E+04   -0.19285E-01   -0.77309E-03  4681   0.549E-02    0.114E+00
RMM:  31    -0.230850484789E+04   -0.98451E-02   -0.78578E-03  5258   0.554E-02    0.196E+00
RMM:  32    -0.230850560382E+04   -0.75593E-03   -0.65040E-03  4491   0.489E-02    0.111E+00
RMM:  33    -0.230850602944E+04   -0.42562E-03   -0.81167E-03  5231   0.548E-02    0.827E-01
RMM:  34    -0.230850425736E+04    0.17721E-02   -0.15203E-02  5157   0.716E-02    0.991E-01
RMM:  35    -0.230850290494E+04    0.13524E-02   -0.26614E-03  5290   0.382E-02    0.104E+00
RMM:  36    -0.230850402534E+04   -0.11204E-02   -0.21064E-04  3943   0.951E-03    0.101E+00
RMM:  37    -0.230850496947E+04   -0.94413E-03   -0.59051E-04  4530   0.149E-02    0.984E-01
RMM:  38    -0.230850596280E+04   -0.99332E-03   -0.11052E-03  5242   0.201E-02    0.997E-01
RMM:  39    -0.230850616261E+04   -0.19982E-03   -0.90900E-04  4809   0.177E-02    0.107E+00
RMM:  40    -0.230851234685E+04   -0.61842E-02   -0.25982E-03  4751   0.227E-02    0.710E-01
RMM:  41    -0.230852097072E+04   -0.86239E-02   -0.43421E-03  4426   0.311E-02    0.449E-01
RMM:  42    -0.230852673472E+04   -0.57640E-02   -0.47655E-03  4688   0.328E-02    0.419E-01
RMM:  43    -0.230852874090E+04   -0.20062E-02   -0.23377E-03  5130   0.230E-02    0.393E-01
RMM:  44    -0.230853208739E+04   -0.33465E-02   -0.23169E-03  4934   0.223E-02    0.450E-01
RMM:  45    -0.230853989835E+04   -0.78110E-02   -0.41722E-03  4555   0.282E-02    0.106E+00
RMM:  46    -0.230853713499E+04    0.27634E-02   -0.15092E-03  5224   0.220E-02    0.958E-01
RMM:  47    -0.230853524236E+04    0.18926E-02   -0.83473E-04  4527   0.142E-02    0.889E-01
RMM:  48    -0.230853116757E+04    0.40748E-02   -0.33243E-03  5135   0.250E-02    0.653E-01
RMM:  49    -0.230852764059E+04    0.35270E-02   -0.47653E-03  5040   0.293E-02    0.599E-01
RMM:  50    -0.230852803224E+04   -0.39165E-03   -0.31343E-04  3167   0.106E-02    0.622E-01
RMM:  51    -0.230852829909E+04   -0.26685E-03   -0.67696E-05  2940   0.457E-03    0.646E-01
RMM:  52    -0.230852856870E+04   -0.26961E-03   -0.14389E-05  2836   0.385E-03    0.663E-01
RMM:  53    -0.230852650953E+04    0.20592E-02   -0.81956E-04  4296   0.121E-02    0.612E-01
RMM:  54    -0.230852404215E+04    0.24674E-02   -0.13592E-03  4382   0.155E-02    0.685E-01
RMM:  55    -0.230852129786E+04    0.27443E-02   -0.16488E-03  4412   0.160E-02    0.844E-01
RMM:  56    -0.230852719189E+04   -0.58940E-02   -0.47768E-03  4716   0.281E-02    0.614E-01
RMM:  57    -0.230853091374E+04   -0.37218E-02   -0.39182E-03  4695   0.272E-02    0.741E-01
RMM:  58    -0.230854025006E+04   -0.93363E-02   -0.87368E-03  5197   0.357E-02    0.151E+00
RMM:  59    -0.230854289132E+04   -0.26413E-02   -0.16607E-03  4331   0.189E-02    0.166E+00
RMM:  60    -0.230853927129E+04    0.36200E-02   -0.37147E-04  3638   0.955E-03    0.136E+00
RMM:  61    -0.230853695513E+04    0.23162E-02   -0.40538E-04  3808   0.881E-03    0.121E+00
RMM:  62    -0.230853121615E+04    0.57390E-02   -0.33517E-03  4838   0.235E-02    0.704E-01
RMM:  63    -0.230852961885E+04    0.15973E-02   -0.13098E-03  4391   0.165E-02    0.682E-01
RMM:  64    -0.230852835713E+04    0.12617E-02   -0.10181E-03  4364   0.112E-02    0.643E-01
RMM:  65    -0.230852760939E+04    0.74775E-03   -0.24806E-04  3449   0.783E-03    0.640E-01
RMM:  66    -0.230852709436E+04    0.51503E-03   -0.15708E-04  3043   0.539E-03    0.635E-01
RMM:  67    -0.230852666217E+04    0.43218E-03   -0.73172E-05  3061   0.474E-03    0.643E-01
RMM:  68    -0.230852704944E+04   -0.38726E-03   -0.22176E-05  2610   0.327E-03    0.642E-01
RMM:  69    -0.230852623448E+04    0.81496E-03   -0.13412E-04  3051   0.493E-03    0.652E-01
RMM:  70    -0.230852497803E+04    0.12565E-02   -0.41227E-04  3938   0.819E-03    0.698E-01
RMM:  71    -0.230852255878E+04    0.24192E-02   -0.17010E-03  4579   0.165E-02    0.870E-01
RMM:  72    -0.230852176185E+04    0.79693E-03   -0.31345E-04  3446   0.807E-03    0.917E-01
RMM:  73    -0.230852192219E+04   -0.16034E-03   -0.19734E-05  2756   0.266E-03    0.908E-01
RMM:  74    -0.230852199354E+04   -0.71350E-04   -0.18288E-06  2441   0.158E-03    0.904E-01
RMM:  75    -0.230852204637E+04   -0.52827E-04   -0.11154E-06  2235   0.108E-03    0.900E-01
RMM:  76    -0.230852410773E+04   -0.20614E-02   -0.67526E-04  4141   0.105E-02    0.774E-01
RMM:  77    -0.230852755947E+04   -0.34517E-02   -0.30310E-03  4740   0.218E-02    0.670E-01
RMM:  78    -0.230853178139E+04   -0.42219E-02   -0.46769E-03  4871   0.269E-02    0.857E-01
RMM:  79    -0.230853595904E+04   -0.41777E-02   -0.30424E-03  4672   0.220E-02    0.119E+00
RMM:  80    -0.230854284214E+04   -0.68831E-02   -0.32488E-03  4827   0.230E-02    0.173E+00
RMM:  81    -0.230855994283E+04   -0.17101E-01   -0.74648E-03  5096   0.350E-02    0.262E+00
RMM:  82    -0.230857883819E+04   -0.18895E-01   -0.72785E-03  4957   0.349E-02    0.300E+00
RMM:  83    -0.230857151674E+04    0.73214E-02   -0.67646E-04  3638   0.158E-02    0.287E+00
RMM:  84    -0.230857464453E+04   -0.31278E-02   -0.19959E-04  2968   0.513E-03    0.296E+00
RMM:  85    -0.230857427908E+04    0.36545E-03   -0.19784E-05  2678   0.297E-03    0.294E+00
RMM:  86    -0.230857806278E+04   -0.37837E-02   -0.17026E-04  3374   0.551E-03    0.299E+00
RMM:  87    -0.230857992215E+04   -0.18594E-02   -0.82176E-05  2933   0.448E-03    0.301E+00
RMM:  88    -0.230858063384E+04   -0.71169E-03   -0.29162E-05  2625   0.289E-03    0.301E+00
RMM:  89    -0.230857699969E+04    0.36342E-02   -0.10857E-04  2811   0.455E-03    0.297E+00
RMM:  90    -0.230857925934E+04   -0.22596E-02   -0.10044E-04  3127   0.487E-03    0.299E+00
RMM:  91    -0.230857372560E+04    0.55337E-02   -0.23843E-04  3403   0.747E-03    0.289E+00
RMM:  92    -0.230856645439E+04    0.72712E-02   -0.77998E-04  4248   0.114E-02    0.274E+00
RMM:  93    -0.230855991987E+04    0.65345E-02   -0.98873E-04  4118   0.125E-02    0.255E+00
RMM:  94    -0.230856290033E+04   -0.29805E-02   -0.76675E-05  2909   0.639E-03    0.269E+00
RMM:  95    -0.230856151950E+04    0.13808E-02   -0.37606E-05  2669   0.352E-03    0.263E+00
RMM:  96    -0.230854821487E+04    0.13305E-01   -0.32585E-03  4809   0.225E-02    0.199E+00
RMM:  97    -0.230854184550E+04    0.63694E-02   -0.24025E-03  4582   0.211E-02    0.166E+00
RMM:  98    -0.230853352525E+04    0.83202E-02   -0.67098E-03  5154   0.303E-02    0.987E-01
RMM:  99    -0.230852892646E+04    0.45988E-02   -0.46268E-03  4816   0.285E-02    0.744E-01
RMM: 100    -0.230852858350E+04    0.34296E-03   -0.94570E-04  3598   0.124E-02    0.747E-01
RMM: 101    -0.230853305276E+04   -0.44693E-02   -0.28034E-03  4613   0.219E-02    0.103E+00
RMM: 102    -0.230852979197E+04    0.32608E-02   -0.99676E-04  4297   0.148E-02    0.742E-01
RMM: 103    -0.230853011161E+04   -0.31964E-03   -0.54013E-05  2832   0.536E-03    0.786E-01
RMM: 104    -0.230852747964E+04    0.26320E-02   -0.13926E-03  4491   0.150E-02    0.679E-01
RMM: 105    -0.230852398791E+04    0.34917E-02   -0.28692E-03  4705   0.217E-02    0.769E-01
RMM: 106    -0.230851861974E+04    0.53682E-02   -0.49290E-03  4863   0.269E-02    0.109E+00
RMM: 107    -0.230850957710E+04    0.90426E-02   -0.57400E-03  4919   0.309E-02    0.157E+00
RMM: 108    -0.230850070817E+04    0.88689E-02   -0.36492E-03  4691   0.251E-02    0.195E+00
RMM: 109    -0.230849936151E+04    0.13467E-02   -0.54002E-04  3655   0.981E-03    0.200E+00
RMM: 110    -0.230849890099E+04    0.46052E-03   -0.63770E-05  2920   0.390E-03    0.201E+00
RMM: 111    -0.230849851944E+04    0.38155E-03   -0.17984E-05  2754   0.298E-03    0.204E+00
RMM: 112    -0.230849773544E+04    0.78400E-03   -0.17996E-05  2671   0.277E-03    0.206E+00
RMM: 113    -0.230850152023E+04   -0.37848E-02   -0.23684E-04  3094   0.647E-03    0.193E+00
RMM: 114    -0.230850110032E+04    0.41991E-03   -0.11796E-05  2519   0.268E-03    0.195E+00
RMM: 115    -0.230850401108E+04   -0.29108E-02   -0.24781E-04  3523   0.661E-03    0.183E+00
RMM: 116    -0.230850843735E+04   -0.44263E-02   -0.89628E-04  4327   0.123E-02    0.161E+00
RMM: 117    -0.230850716045E+04    0.12769E-02   -0.39512E-05  2758   0.422E-03    0.165E+00
RMM: 118    -0.230850555466E+04    0.16058E-02   -0.65675E-05  2783   0.406E-03    0.172E+00
RMM: 119    -0.230850436752E+04    0.11871E-02   -0.54227E-05  2798   0.357E-03    0.177E+00
RMM: 120    -0.230850387000E+04    0.49752E-03   -0.20070E-05  2470   0.245E-03    0.179E+00
RMM: 121    -0.230850017016E+04    0.36998E-02   -0.44550E-04  4128   0.908E-03    0.195E+00
RMM: 122    -0.230850019201E+04   -0.21851E-04   -0.28575E-05  2657   0.344E-03    0.195E+00
RMM: 123    -0.230849966972E+04    0.52228E-03   -0.11668E-05  2487   0.173E-03    0.197E+00
RMM: 124    -0.230850016694E+04   -0.49721E-03   -0.26982E-06  2278   0.141E-03    0.196E+00
RMM: 125    -0.230850032882E+04   -0.16188E-03   -0.54328E-06  1980   0.120E-03    0.194E+00
RMM: 126    -0.230850303945E+04   -0.27106E-02   -0.23864E-04  3497   0.643E-03    0.182E+00
RMM: 127    -0.230850727403E+04   -0.42346E-02   -0.63414E-04  4061   0.997E-03    0.164E+00
RMM: 128    -0.230850984255E+04   -0.25685E-02   -0.42749E-04  3673   0.842E-03    0.152E+00
RMM: 129    -0.230851333347E+04   -0.34909E-02   -0.74370E-04  4292   0.111E-02    0.133E+00
RMM: 130    -0.230851862074E+04   -0.52873E-02   -0.22147E-03  4607   0.189E-02    0.103E+00
RMM: 131    -0.230852219155E+04   -0.35708E-02   -0.17774E-03  4415   0.173E-02    0.825E-01
RMM: 132    -0.230852682976E+04   -0.46382E-02   -0.47198E-03  4981   0.275E-02    0.635E-01
RMM: 133    -0.230853065584E+04   -0.38261E-02   -0.46153E-03  4836   0.273E-02    0.741E-01
RMM: 134    -0.230853510404E+04   -0.44482E-02   -0.36388E-03  4774   0.242E-02    0.108E+00
RMM: 135    -0.230853976115E+04   -0.46571E-02   -0.21701E-03  4503   0.205E-02    0.145E+00
RMM: 136    -0.230856118882E+04   -0.21428E-01   -0.12423E-02  5184   0.436E-02    0.262E+00
RMM: 137    -0.230857714798E+04   -0.15959E-01   -0.70790E-03  4955   0.358E-02    0.290E+00
RMM: 138    -0.230856450713E+04    0.12641E-01   -0.13136E-03  4305   0.180E-02    0.261E+00
RMM: 139    -0.230857074519E+04   -0.62381E-02   -0.33773E-04  3306   0.878E-03    0.287E+00
RMM: 140    -0.230856736003E+04    0.33852E-02   -0.27013E-04  3742   0.806E-03    0.280E+00
RMM: 141    -0.230857524123E+04   -0.78812E-02   -0.50630E-04  3702   0.993E-03    0.301E+00
RMM: 142    -0.230857828880E+04   -0.30476E-02   -0.18311E-04  3101   0.646E-03    0.304E+00
RMM: 143    -0.230857517313E+04    0.31157E-02   -0.73140E-05  2876   0.453E-03    0.300E+00
RMM: 144    -0.230857414098E+04    0.10322E-02   -0.27122E-05  2621   0.276E-03    0.299E+00
RMM: 145    -0.230856869070E+04    0.54503E-02   -0.29350E-04  3491   0.713E-03    0.287E+00
RMM: 146    -0.230855500939E+04    0.13681E-01   -0.24962E-03  4597   0.196E-02    0.237E+00
RMM: 147    -0.230854630221E+04    0.87072E-02   -0.20613E-03  4365   0.189E-02    0.191E+00
RMM: 148    -0.230853920299E+04    0.70992E-02   -0.26007E-03  4646   0.192E-02    0.139E+00
RMM: 149    -0.230853455061E+04    0.46524E-02   -0.18446E-03  4411   0.179E-02    0.101E+00
RMM: 150    -0.230853188984E+04    0.26608E-02   -0.13385E-03  4362   0.144E-02    0.795E-01
RMM: 151    -0.230852800616E+04    0.38837E-02   -0.41653E-03  5057   0.257E-02    0.648E-01
RMM: 152    -0.230852511221E+04    0.28940E-02   -0.27610E-03  4583   0.216E-02    0.685E-01
RMM: 153    -0.230852663106E+04   -0.15188E-02   -0.31606E-04  3442   0.992E-03    0.662E-01
RMM: 154    -0.230852717920E+04   -0.54814E-03   -0.15317E-04  3202   0.587E-03    0.653E-01
RMM: 155    -0.230852702359E+04    0.15561E-03   -0.74481E-06  2545   0.267E-03    0.650E-01
RMM: 156    -0.230852745864E+04   -0.43506E-03   -0.35254E-05  2527   0.261E-03    0.662E-01
RMM: 157    -0.230852696043E+04    0.49822E-03   -0.36808E-05  2443   0.319E-03    0.647E-01
RMM: 158    -0.230852663039E+04    0.33004E-03   -0.31987E-05  2543   0.267E-03    0.645E-01
RMM: 159    -0.230852579763E+04    0.83276E-03   -0.14458E-04  3104   0.520E-03    0.647E-01
RMM: 160    -0.230852671386E+04   -0.91622E-03   -0.12650E-04  3064   0.571E-03    0.639E-01
RMM: 161    -0.230853107118E+04   -0.43573E-02   -0.34879E-03  4652   0.239E-02    0.819E-01
RMM: 162    -0.230853237358E+04   -0.13024E-02   -0.71286E-04  3804   0.133E-02    0.908E-01
RMM: 163    -0.230853624317E+04   -0.38696E-02   -0.18231E-03  4627   0.153E-02    0.124E+00
RMM: 164    -0.230853954658E+04   -0.33034E-02   -0.92722E-04  4113   0.132E-02    0.151E+00
RMM: 165    -0.230853928542E+04    0.26115E-03   -0.14800E-04  2893   0.597E-03    0.147E+00
RMM: 166    -0.230853977338E+04   -0.48795E-03   -0.47240E-05  2747   0.347E-03    0.156E+00
RMM: 167    -0.230854027460E+04   -0.50123E-03   -0.20375E-05  2615   0.263E-03    0.159E+00
RMM: 168    -0.230854023634E+04    0.38258E-04   -0.28756E-06  2288   0.154E-03    0.159E+00
RMM: 169    -0.230854151843E+04   -0.12821E-02   -0.72773E-05  2987   0.366E-03    0.168E+00
RMM: 170    -0.230854163051E+04   -0.11208E-03   -0.11072E-05  2463   0.246E-03    0.168E+00
RMM: 171    -0.230853788878E+04    0.37417E-02   -0.49463E-04  3699   0.883E-03    0.136E+00
RMM: 172    -0.230853958609E+04   -0.16973E-02   -0.11156E-04  2924   0.629E-03    0.153E+00
RMM: 173    -0.230853871671E+04    0.86938E-03   -0.22874E-05  2524   0.350E-03    0.143E+00
RMM: 174    -0.230853885419E+04   -0.13748E-03   -0.13139E-05  2412   0.217E-03    0.145E+00
RMM: 175    -0.230853647648E+04    0.23777E-02   -0.36248E-04  3739   0.792E-03    0.123E+00
RMM: 176    -0.230853519638E+04    0.12801E-02   -0.28151E-04  3470   0.772E-03    0.113E+00
RMM: 177    -0.230853251952E+04    0.26769E-02   -0.10688E-03  4410   0.131E-02    0.898E-01
RMM: 178    -0.230853056393E+04    0.19556E-02   -0.91752E-04  4231   0.132E-02    0.769E-01
RMM: 179    -0.230852866101E+04    0.19029E-02   -0.12768E-03  4385   0.141E-02    0.687E-01
RMM: 180    -0.230852630953E+04    0.23515E-02   -0.16459E-03  4599   0.169E-02    0.682E-01
RMM: 181    -0.230852256877E+04    0.37408E-02   -0.32915E-03  4836   0.236E-02    0.862E-01
RMM: 182    -0.230851953455E+04    0.30342E-02   -0.17634E-03  4383   0.179E-02    0.105E+00
RMM: 183    -0.230851732758E+04    0.22070E-02   -0.92932E-04  4064   0.121E-02    0.118E+00
RMM: 184    -0.230851528954E+04    0.20380E-02   -0.40981E-04  3691   0.968E-03    0.130E+00
RMM: 185    -0.230851491592E+04    0.37362E-03   -0.54734E-05  2954   0.460E-03    0.132E+00
RMM: 186    -0.230851399601E+04    0.91991E-03   -0.67990E-05  2937   0.415E-03    0.137E+00
RMM: 187    -0.230851447499E+04   -0.47897E-03   -0.10445E-05  2532   0.288E-03    0.134E+00
RMM: 188    -0.230851626240E+04   -0.17874E-02   -0.19642E-04  3345   0.588E-03    0.124E+00
RMM: 189    -0.230851734101E+04   -0.10786E-02   -0.12460E-04  3054   0.494E-03    0.117E+00
RMM: 190    -0.230852008414E+04   -0.27431E-02   -0.75586E-04  4062   0.111E-02    0.100E+00
RMM: 191    -0.230852274253E+04   -0.26584E-02   -0.11142E-03  4296   0.139E-02    0.841E-01
RMM: 192    -0.230852559454E+04   -0.28520E-02   -0.20333E-03  4603   0.177E-02    0.696E-01
RMM: 193    -0.230852832358E+04   -0.27290E-02   -0.23392E-03  4680   0.195E-02    0.672E-01
RMM: 194    -0.230852993799E+04   -0.16144E-02   -0.10371E-03  4155   0.134E-02    0.727E-01
RMM: 195    -0.230853198985E+04   -0.20519E-02   -0.99307E-04  4359   0.133E-02    0.864E-01
RMM: 196    -0.230853620653E+04   -0.42167E-02   -0.19979E-03  4629   0.184E-02    0.122E+00
RMM: 197    -0.230854067892E+04   -0.44724E-02   -0.16070E-03  4397   0.170E-02    0.157E+00
RMM: 198    -0.230854633642E+04   -0.56575E-02   -0.17213E-03  4517   0.165E-02    0.196E+00
RMM: 199    -0.230855425740E+04   -0.79210E-02   -0.18878E-03  4598   0.178E-02    0.239E+00
RMM: 200    -0.230856057651E+04   -0.63191E-02   -0.11359E-03  4234   0.142E-02    0.263E+00
RMM: 201    -0.230856462672E+04   -0.40502E-02   -0.56291E-04  3861   0.101E-02    0.275E+00
RMM: 202    -0.230856353594E+04    0.10908E-02   -0.38132E-05  2843   0.482E-03    0.271E+00
RMM: 203    -0.230856223382E+04    0.13021E-02   -0.28153E-05  2647   0.288E-03    0.267E+00
RMM: 204    -0.230855709504E+04    0.51388E-02   -0.41993E-04  3848   0.830E-03    0.248E+00
RMM: 205    -0.230855108638E+04    0.60087E-02   -0.84310E-04  4240   0.117E-02    0.220E+00
RMM: 206    -0.230854868826E+04    0.23981E-02   -0.33494E-04  3407   0.796E-03    0.209E+00
RMM: 207    -0.230854898040E+04   -0.29214E-03   -0.55096E-05  2662   0.364E-03    0.211E+00
RMM: 208    -0.230854971570E+04   -0.73530E-03   -0.12509E-05  2446   0.215E-03    0.215E+00
RMM: 209    -0.230854965159E+04    0.64108E-04   -0.12542E-06  2049   0.122E-03    0.214E+00
RMM: 210    -0.230855008399E+04   -0.43240E-03   -0.50663E-06  1906   0.123E-03    0.217E+00
RMM: 211    -0.230854618970E+04    0.38943E-02   -0.34832E-04  3655   0.755E-03    0.192E+00
RMM: 212    -0.230854841668E+04   -0.22270E-02   -0.88430E-05  2853   0.564E-03    0.209E+00
RMM: 213    -0.230854947395E+04   -0.10573E-02   -0.53223E-05  2683   0.372E-03    0.213E+00
RMM: 214    -0.230855033035E+04   -0.85641E-03   -0.37127E-05  2615   0.290E-03    0.218E+00
RMM: 215    -0.230854947963E+04    0.85072E-03   -0.10595E-05  2248   0.245E-03    0.213E+00
RMM: 216    -0.230856294057E+04   -0.13461E-01   -0.27962E-03  4754   0.211E-02    0.274E+00
RMM: 217    -0.230857558883E+04   -0.12648E-01   -0.29994E-03  4681   0.226E-02    0.299E+00
RMM: 218    -0.230858047802E+04   -0.48892E-02   -0.12132E-03  4136   0.123E-02    0.302E+00
RMM: 219    -0.230858062068E+04   -0.14266E-03   -0.98942E-05  2898   0.454E-03    0.303E+00
RMM: 220    -0.230857667545E+04    0.39452E-02   -0.16167E-04  3155   0.553E-03    0.299E+00
RMM: 221    -0.230855586272E+04    0.20813E-01   -0.58465E-03  4886   0.306E-02    0.238E+00
RMM: 222    -0.230853867222E+04    0.17191E-01   -0.10766E-02  5029   0.417E-02    0.134E+00
RMM: 223    -0.230852913878E+04    0.95334E-02   -0.15007E-02  5227   0.477E-02    0.688E-01
RMM: 224    -0.230852154739E+04    0.75914E-02   -0.15196E-02  5098   0.487E-02    0.930E-01
RMM: 225    -0.230851789061E+04    0.36568E-02   -0.38755E-03  4593   0.253E-02    0.116E+00
RMM: 226    -0.230851991534E+04   -0.20247E-02   -0.30371E-04  3434   0.921E-03    0.104E+00
RMM: 227    -0.230852089682E+04   -0.98148E-03   -0.15141E-04  3234   0.601E-03    0.974E-01
RMM: 228    -0.230852223014E+04   -0.13333E-02   -0.31270E-04  3500   0.796E-03    0.890E-01
RMM: 229    -0.230852535861E+04   -0.31285E-02   -0.19691E-03  4571   0.178E-02    0.725E-01
RMM: 230    -0.230852821506E+04   -0.28565E-02   -0.25369E-03  4609   0.206E-02    0.689E-01
RMM: 231    -0.230852612643E+04    0.20886E-02   -0.67659E-04  4070   0.121E-02    0.687E-01
RMM: 232    -0.230852518057E+04    0.94586E-03   -0.28784E-04  3502   0.759E-03    0.726E-01
RMM: 233    -0.230852522602E+04   -0.45446E-04   -0.22560E-05  2646   0.305E-03    0.725E-01
RMM: 234    -0.230852569932E+04   -0.47330E-03   -0.39436E-05  2450   0.269E-03    0.707E-01
RMM: 235    -0.230852668048E+04   -0.98116E-03   -0.24241E-04  3444   0.625E-03    0.682E-01
RMM: 236    -0.230852659069E+04    0.89788E-04   -0.12451E-05  2459   0.281E-03    0.682E-01
RMM: 237    -0.230852690859E+04   -0.31790E-03   -0.29868E-05  2509   0.225E-03    0.679E-01
RMM: 238    -0.230852675576E+04    0.15283E-03   -0.41554E-06  2143   0.184E-03    0.679E-01
RMM: 239    -0.230852670398E+04    0.51781E-04   -0.23421E-06  1531   0.948E-04    0.679E-01
RMM: 240    -0.230852871343E+04   -0.20095E-02   -0.90456E-04  4356   0.121E-02    0.694E-01
RMM: 241    -0.230852897299E+04   -0.25956E-03   -0.10986E-04  2884   0.553E-03    0.695E-01
RMM: 242    -0.230852885837E+04    0.11463E-03   -0.12954E-05  2524   0.208E-03    0.691E-01
RMM: 243    -0.230852914193E+04   -0.28356E-03   -0.18139E-05  2506   0.222E-03    0.703E-01
RMM: 244    -0.230852917282E+04   -0.30899E-04   -0.31401E-06  2248   0.166E-03    0.702E-01
RMM: 245    -0.230852913818E+04    0.34641E-04   -0.49689E-07  1537   0.803E-04    0.702E-01
RMM: 246    -0.230852896474E+04    0.17344E-03   -0.98692E-06  1942   0.151E-03    0.697E-01
RMM: 247    -0.230852909764E+04   -0.13289E-03   -0.25056E-06  1561   0.121E-03    0.704E-01
RMM: 248    -0.230852905274E+04    0.44897E-04   -0.25435E-07   959   0.668E-04    0.701E-01
RMM: 249    -0.230852899240E+04    0.60346E-04   -0.11641E-06  1131   0.719E-04    0.700E-01
RMM: 250    -0.230852884553E+04    0.14687E-03   -0.68469E-06  1801   0.128E-03    0.697E-01
RMM: 251    -0.230852997149E+04   -0.11260E-02   -0.23655E-04  3462   0.645E-03    0.751E-01
RMM: 252    -0.230853008560E+04   -0.11411E-03   -0.28183E-05  2442   0.337E-03    0.748E-01
RMM: 253    -0.230853027159E+04   -0.18599E-03   -0.22521E-05  2471   0.210E-03    0.760E-01
RMM: 254    -0.230853038858E+04   -0.11699E-03   -0.56981E-06  2308   0.187E-03    0.765E-01
RMM: 255    -0.230853037895E+04    0.96281E-05   -0.12684E-06  1716   0.106E-03
   1 F= -.23289872E+04 E0= -.23289788E+04  d E =-.232899E+04  mag=     3.7931
       N       E                     dE             d eps       ncg     rms          rms(c)
DAV:   1    -0.230841866379E+04    0.11172E+00   -0.96570E+00  4528   0.218E+00    0.141E+00
RMM:   2    -0.230865309030E+04   -0.23443E+00   -0.25153E+00  6184   0.591E-01    0.815E-01
RMM:   3    -0.230867704148E+04   -0.23951E-01   -0.29528E-01  5510   0.257E-01    0.862E-01
RMM:   4    -0.230867458923E+04    0.24523E-02   -0.22552E-02  5586   0.484E-02    0.516E-01
RMM:   5    -0.230867158112E+04    0.30081E-02   -0.61237E-03  5341   0.343E-02    0.238E-01
RMM:   6    -0.230867080979E+04    0.77134E-03   -0.27213E-03  5088   0.248E-02    0.124E-01
RMM:   7    -0.230867070235E+04    0.10743E-03   -0.46685E-04  4305   0.140E-02    0.664E-02
RMM:   8    -0.230867079888E+04   -0.96526E-04   -0.15028E-04  3645   0.766E-03    0.343E-02
RMM:   9    -0.230867106592E+04   -0.26704E-03   -0.56866E-05  3351   0.624E-03    0.204E-02
RMM:  10    -0.230867129238E+04   -0.22646E-03   -0.28811E-05  3002   0.505E-03    0.148E-02
RMM:  11    -0.230867144986E+04   -0.15748E-03   -0.19155E-05  2905   0.423E-03    0.104E-02
RMM:  12    -0.230867161762E+04   -0.16776E-03   -0.28793E-05  3099   0.441E-03    0.642E-03
RMM:  13    -0.230867167664E+04   -0.59020E-04   -0.12475E-05  2849   0.387E-03    0.354E-03
RMM:  14    -0.230867169810E+04   -0.21453E-04   -0.66855E-06  2688   0.280E-03    0.195E-03
RMM:  15    -0.230867170532E+04   -0.72203E-05   -0.29736E-06  2511   0.232E-03
   2 F= -.23291280E+04 E0= -.23291278E+04  d E =-.140745E+00  mag=     3.9955
       N       E                     dE             d eps       ncg     rms          rms(c)
DAV:   1    -0.230857757002E+04    0.94128E-01   -0.52446E+00  4512   0.158E+00    0.852E-01
RMM:   2    -0.230870165351E+04   -0.12408E+00   -0.13150E+00  6130   0.418E-01    0.601E-01
RMM:   3    -0.230871574971E+04   -0.14096E-01   -0.16330E-01  5385   0.207E-01    0.720E-01
RMM:   4    -0.230871344015E+04    0.23096E-02   -0.12018E-02  5168   0.348E-02    0.280E-01
RMM:   5    -0.230871224794E+04    0.11922E-02   -0.22789E-03  5171   0.195E-02    0.181E-01
RMM:   6    -0.230871176625E+04    0.48170E-03   -0.21321E-03  5208   0.194E-02    0.671E-02
RMM:   7    -0.230871172010E+04    0.46147E-04   -0.24786E-04  3689   0.114E-02    0.278E-02
RMM:   8    -0.230871170337E+04    0.16723E-04   -0.50333E-05  2970   0.527E-03    0.145E-02
RMM:   9    -0.230871169963E+04    0.37405E-05   -0.17868E-05  2872   0.417E-03
   3 F= -.23291678E+04 E0= -.23291678E+04  d E =-.180513E+00  mag=     3.9990
       N       E                     dE             d eps       ncg     rms          rms(c)
DAV:   1    -0.230870665111E+04    0.50523E-02   -0.26595E-01  4776   0.351E-01    0.190E-01
RMM:   2    -0.230871276722E+04   -0.61161E-02   -0.63613E-02  6158   0.930E-02    0.180E-01
RMM:   3    -0.230871345332E+04   -0.68609E-03   -0.76770E-03  4511   0.458E-02    0.207E-01
RMM:   4    -0.230871323827E+04    0.21504E-03   -0.63462E-04  3251   0.910E-03    0.592E-02
RMM:   5    -0.230871317817E+04    0.60107E-04   -0.13357E-04  3255   0.553E-03    0.389E-02
RMM:   6    -0.230871316027E+04    0.17897E-04   -0.81690E-05  3304   0.514E-03    0.291E-02
RMM:   7    -0.230871315441E+04    0.58622E-05   -0.13458E-05  2794   0.412E-03
   4 F= -.23291692E+04 E0= -.23291692E+04  d E =-.181935E+00  mag=     3.9997
       N       E                     dE             d eps       ncg     rms          rms(c)
DAV:   1    -0.230868530078E+04    0.27859E-01   -0.60279E+00  4432   0.232E+00    0.109E+00
RMM:   2    -0.230880705784E+04   -0.12176E+00   -0.10062E+00  5911   0.525E-01    0.246E+00
RMM:   3    -0.230877977680E+04    0.27281E-01   -0.85866E-02  5726   0.186E-01    0.573E-01
RMM:   4    -0.230877737070E+04    0.24061E-02   -0.12124E-02  4894   0.492E-02    0.261E-01
RMM:   5    -0.230877680870E+04    0.56200E-03   -0.32986E-03  5511   0.408E-02    0.362E-01
RMM:   6    -0.230877610079E+04    0.70790E-03   -0.20737E-03  5547   0.260E-02    0.140E-01
RMM:   7    -0.230877598303E+04    0.11776E-03   -0.15997E-04  3575   0.988E-03    0.420E-02
RMM:   8    -0.230877596377E+04    0.19259E-04   -0.64824E-05  2989   0.553E-03    0.234E-02
RMM:   9    -0.230877595704E+04    0.67315E-05   -0.19281E-05  2846   0.455E-03
   5 F= -.23292326E+04 E0= -.23292326E+04  d E =-.633835E-01  mag=     3.9999
       N       E                     dE             d eps       ncg     rms          rms(c)
DAV:   1    -0.230877064147E+04    0.53223E-02   -0.58852E-01  4896   0.724E-01    0.342E-01
RMM:   2    -0.230878243865E+04   -0.11797E-01   -0.98247E-02  5940   0.165E-01    0.756E-01
RMM:   3    -0.230877991297E+04    0.25257E-02   -0.85886E-03  5703   0.587E-02    0.181E-01
RMM:   4    -0.230877966211E+04    0.25086E-03   -0.11995E-03  4527   0.154E-02    0.809E-02
RMM:   5    -0.230877959649E+04    0.65617E-04   -0.30288E-04  4669   0.129E-02    0.110E-01
RMM:   6    -0.230877952793E+04    0.68560E-04   -0.21679E-04  4325   0.976E-03    0.450E-02
RMM:   7    -0.230877951384E+04    0.14092E-04   -0.19044E-05  2864   0.511E-03    0.113E-02
RMM:   8    -0.230877951191E+04    0.19292E-05   -0.92246E-06  2843   0.274E-03
   6 F= -.23292363E+04 E0= -.23292363E+04  d E =-.671199E-01  mag=     4.0000
       N       E                     dE             d eps       ncg     rms          rms(c)
DAV:   1    -0.230876648019E+04    0.13034E-01   -0.33291E+00  4416   0.139E+00    0.754E-01
RMM:   2    -0.230886698894E+04   -0.10051E+00   -0.77566E-01  6399   0.389E-01    0.230E+00
RMM:   3    -0.230883950621E+04    0.27483E-01   -0.64180E-02  5866   0.117E-01    0.430E-01
RMM:   4    -0.230883974323E+04   -0.23702E-03   -0.12111E-02  5402   0.327E-02    0.202E-01
RMM:   5    -0.230883990296E+04   -0.15973E-03   -0.10864E-03  4852   0.169E-02    0.351E-01
RMM:   6    -0.230883909782E+04    0.80514E-03   -0.14984E-03  5028   0.195E-02    0.636E-02
RMM:   7    -0.230883914909E+04   -0.51276E-04   -0.18805E-04  3175   0.756E-03    0.628E-02
RMM:   8    -0.230883914791E+04    0.11873E-05   -0.39223E-05  2861   0.486E-03
   7 F= -.23292966E+04 E0= -.23292966E+04  d E =-.603071E-01  mag=     4.0000
       N       E                     dE             d eps       ncg     rms          rms(c)
DAV:   1    -0.230828887959E+04    0.55027E+00   -0.29785E+01  4392   0.419E+00    0.234E+00
RMM:   2    -0.230926232587E+04   -0.97345E+00   -0.76302E+00  6439   0.126E+00    0.678E+00
RMM:   3    -0.230896562543E+04    0.29670E+00   -0.64992E-01  5821   0.376E-01    0.131E+00
RMM:   4    -0.230896794699E+04   -0.23216E-02   -0.12101E-01  5712   0.106E-01    0.612E-01
RMM:   5    -0.230896786185E+04    0.85141E-04   -0.94480E-03  5496   0.479E-02    0.873E-01
RMM:   6    -0.230896192596E+04    0.59359E-02   -0.11436E-02  5468   0.540E-02    0.168E-01
RMM:   7    -0.230896241839E+04   -0.49243E-03   -0.20867E-03  4966   0.237E-02    0.184E-01
RMM:   8    -0.230896234513E+04    0.73261E-04   -0.29244E-04  3971   0.103E-02    0.818E-02
RMM:   9    -0.230896239740E+04   -0.52268E-04   -0.11704E-04  3339   0.682E-03    0.246E-02
RMM:  10    -0.230896245047E+04   -0.53075E-04   -0.36357E-05  2930   0.515E-03    0.131E-02
RMM:  11    -0.230896248180E+04   -0.31332E-04   -0.13883E-05  2839   0.420E-03    0.824E-03
RMM:  12    -0.230896251438E+04   -0.32579E-04   -0.11945E-05  2832   0.359E-03    0.514E-03
RMM:  13    -0.230896253606E+04   -0.21676E-04   -0.79553E-06  2807   0.342E-03    0.310E-03
RMM:  14    -0.230896254645E+04   -0.10391E-04   -0.54552E-06  2773   0.276E-03    0.198E-03
RMM:  15    -0.230896255026E+04   -0.38067E-05   -0.28137E-06  2577   0.226E-03
   8 F= -.23294219E+04 E0= -.23294219E+04  d E =-.185628E+00  mag=     4.0000
       N       E                     dE             d eps       ncg     rms          rms(c)
DAV:   1    -0.230607990779E+04    0.28826E+01   -0.11915E+02  4384   0.848E+00    0.490E+00
RMM:   2    -0.231036522061E+04   -0.42853E+01   -0.35474E+01  6465   0.268E+00    0.117E+01
RMM:   3    -0.230894448988E+04    0.14207E+01   -0.30916E+00  5586   0.894E-01    0.260E+00
RMM:   4    -0.230895979638E+04   -0.15306E-01   -0.48512E-01  5798   0.208E-01    0.117E+00
RMM:   5    -0.230895452188E+04    0.52745E-02   -0.34445E-02  5422   0.932E-02    0.128E+00
RMM:   6    -0.230894155119E+04    0.12971E-01   -0.28499E-02  5359   0.884E-02    0.502E-01
RMM:   7    -0.230894140136E+04    0.14983E-03   -0.11403E-02  5414   0.597E-02    0.433E-01
RMM:   8    -0.230894068850E+04    0.71287E-03   -0.14831E-03  4865   0.205E-02    0.199E-01
RMM:   9    -0.230894050895E+04    0.17955E-03   -0.58111E-04  4498   0.148E-02    0.460E-02
RMM:  10    -0.230894057824E+04   -0.69291E-04   -0.19403E-04  4123   0.832E-03    0.224E-02
RMM:  11    -0.230894061270E+04   -0.34459E-04   -0.36865E-05  3099   0.637E-03    0.154E-02
RMM:  12    -0.230894064581E+04   -0.33114E-04   -0.25667E-05  3030   0.467E-03    0.116E-02
RMM:  13    -0.230894067744E+04   -0.31631E-04   -0.18275E-05  2886   0.472E-03    0.525E-03
RMM:  14    -0.230894069484E+04   -0.17394E-04   -0.11223E-05  2816   0.416E-03    0.400E-03
RMM:  15    -0.230894070356E+04   -0.87274E-05   -0.65763E-06  2799   0.332E-03
   9 F= -.23294031E+04 E0= -.23294031E+04  d E =-.166775E+00  mag=     3.9999
       N       E                     dE             d eps       ncg     rms          rms(c)
DAV:   1    -0.230819876100E+04    0.74193E+00   -0.35162E+01  4400   0.458E+00    0.223E+00
RMM:   2    -0.230902772388E+04   -0.82896E+00   -0.79067E+00  6426   0.131E+00    0.366E+00
RMM:   3    -0.230901108192E+04    0.16642E-01   -0.80081E-01  5991   0.394E-01    0.158E+00
RMM:   4    -0.230900140034E+04    0.96816E-02   -0.87139E-02  5755   0.103E-01    0.573E-01
RMM:   5    -0.230899873336E+04    0.26670E-02   -0.94428E-03  5145   0.505E-02    0.475E-01
RMM:   6    -0.230899680698E+04    0.19264E-02   -0.78236E-03  5421   0.493E-02    0.158E-01
RMM:   7    -0.230899675747E+04    0.49509E-04   -0.98064E-04  5220   0.201E-02    0.644E-02
RMM:   8    -0.230899673773E+04    0.19735E-04   -0.15620E-04  3818   0.806E-03    0.394E-02
RMM:   9    -0.230899671249E+04    0.25247E-04   -0.59214E-05  3135   0.626E-03    0.222E-02
RMM:  10    -0.230899671058E+04    0.19057E-05   -0.58271E-05  3086   0.600E-03
  10 F= -.23294576E+04 E0= -.23294576E+04  d E =-.221325E+00  mag=     4.0000
       N       E                     dE             d eps       ncg     rms          rms(c)
DAV:   1    -0.230899919095E+04   -0.24785E-02   -0.16408E+00  4432   0.945E-01    0.493E-01
RMM:   2    -0.230904189896E+04   -0.42708E-01   -0.38509E-01  6447   0.272E-01    0.103E+00
RMM:   3    -0.230903632690E+04    0.55721E-02   -0.34587E-02  5727   0.815E-02    0.209E-01
RMM:   4    -0.230903666186E+04   -0.33496E-03   -0.47198E-03  4716   0.197E-02    0.128E-01
RMM:   5    -0.230903658027E+04    0.81585E-04   -0.48729E-04  4212   0.108E-02    0.152E-01
RMM:   6    -0.230903639098E+04    0.18929E-03   -0.60147E-04  4395   0.126E-02    0.423E-02
RMM:   7    -0.230903638825E+04    0.27378E-05   -0.68801E-05  2898   0.510E-03
  11 F= -.23294976E+04 E0= -.23294976E+04  d E =-.399241E-01  mag=     4.0000
       N       E                     dE             d eps       ncg     rms          rms(c)
DAV:   1    -0.230879682935E+04    0.23956E+00   -0.14733E+01  4400   0.283E+00    0.150E+00
RMM:   2    -0.230919098679E+04   -0.39416E+00   -0.35770E+00  6461   0.837E-01    0.307E+00
RMM:   3    -0.230913835204E+04    0.52635E-01   -0.34293E-01  5900   0.253E-01    0.630E-01
RMM:   4    -0.230914189399E+04   -0.35419E-02   -0.45504E-02  5586   0.600E-02    0.407E-01
RMM:   5    -0.230914096707E+04    0.92692E-03   -0.38094E-03  5266   0.276E-02    0.441E-01
RMM:   6    -0.230913919798E+04    0.17691E-02   -0.45747E-03  5423   0.333E-02    0.107E-01
RMM:   7    -0.230913926342E+04   -0.65446E-04   -0.65895E-04  4460   0.127E-02    0.684E-02
RMM:   8    -0.230913924867E+04    0.14759E-04   -0.76286E-05  2970   0.632E-03    0.326E-02
RMM:   9    -0.230913925635E+04   -0.76854E-05   -0.42431E-05  2892   0.445E-03
  12 F= -.23296011E+04 E0= -.23296011E+04  d E =-.143463E+00  mag=     4.0000
       N       E                     dE             d eps       ncg     rms          rms(c)
DAV:   1    -0.230784351603E+04    0.12957E+01   -0.58854E+01  4392   0.564E+00    0.301E+00
RMM:   2    -0.230945769809E+04   -0.16142E+01   -0.14967E+01  6470   0.165E+00    0.571E+00
RMM:   3    -0.230926433726E+04    0.19336E+00   -0.15234E+00  5745   0.564E-01    0.125E+00
RMM:   4    -0.230927865782E+04   -0.14321E-01   -0.18348E-01  5723   0.121E-01    0.879E-01
RMM:   5    -0.230927503525E+04    0.36226E-02   -0.15927E-02  5544   0.543E-02    0.845E-01
RMM:   6    -0.230926801974E+04    0.70155E-02   -0.15534E-02  5483   0.601E-02    0.221E-01
RMM:   7    -0.230926830078E+04   -0.28104E-03   -0.34236E-03  5147   0.285E-02    0.133E-01
RMM:   8    -0.230926825563E+04    0.45147E-04   -0.31501E-04  3971   0.112E-02    0.733E-02
RMM:   9    -0.230926825680E+04   -0.11698E-05   -0.14271E-04  3309   0.782E-03    0.252E-02
RMM:  10    -0.230926827483E+04   -0.18028E-04   -0.60500E-05  2991   0.541E-03    0.981E-03
RMM:  11    -0.230926828305E+04   -0.82215E-05   -0.11975E-05  2849   0.392E-03
  13 F= -.23297311E+04 E0= -.23297311E+04  d E =-.273485E+00  mag=     4.0000
       N       E                     dE             d eps       ncg     rms          rms(c)
DAV:   1    -0.230292081519E+04    0.63475E+01   -0.23689E+02  4384   0.113E+01    0.690E+00
RMM:   2    -0.231138963962E+04   -0.84688E+01   -0.73684E+01  6496   0.349E+00    0.138E+01
RMM:   3    -0.230921796853E+04    0.21717E+01   -0.67676E+00  5682   0.113E+00    0.325E+00
RMM:   4    -0.230925932931E+04   -0.41361E-01   -0.92226E-01  5827   0.250E-01    0.185E+00
RMM:   5    -0.230925663174E+04    0.26976E-02   -0.77491E-02  5512   0.116E-01    0.189E+00
RMM:   6    -0.230922351932E+04    0.33112E-01   -0.61604E-02  5262   0.111E-01    0.518E-01
RMM:   7    -0.230922498604E+04   -0.14667E-02   -0.17299E-02  5151   0.694E-02    0.462E-01
RMM:   8    -0.230922397478E+04    0.10113E-02   -0.23964E-03  4783   0.266E-02    0.176E-01
RMM:   9    -0.230922397792E+04   -0.31404E-05   -0.78062E-04  4341   0.161E-02    0.670E-02
RMM:  10    -0.230922405899E+04   -0.81063E-04   -0.25126E-04  3898   0.894E-03    0.389E-02
RMM:  11    -0.230922408250E+04   -0.23509E-04   -0.52294E-05  3125   0.629E-03    0.173E-02
RMM:  12    -0.230922409969E+04   -0.17194E-04   -0.24895E-05  2898   0.476E-03    0.706E-03
RMM:  13    -0.230922410971E+04   -0.10016E-04   -0.94637E-06  2823   0.388E-03    0.460E-03
RMM:  14    -0.230922411602E+04   -0.63122E-05   -0.55738E-06  2801   0.296E-03
  14 F= -.23296875E+04 E0= -.23296875E+04  d E =-.229909E+00  mag=     4.0000
       N       E                     dE             d eps       ncg     rms          rms(c)
DAV:   1    -0.230734893910E+04    0.18752E+01   -0.84733E+01  4400   0.641E+00    0.336E+00
RMM:   2    -0.230927519843E+04   -0.19263E+01   -0.19143E+01  6452   0.184E+00    0.450E+00
RMM:   3    -0.230935039980E+04   -0.75201E-01   -0.19549E+00  5782   0.612E-01    0.288E+00
RMM:   4    -0.230930579236E+04    0.44607E-01   -0.17774E-01  5633   0.142E-01    0.108E+00
RMM:   5    -0.230930104682E+04    0.47455E-02   -0.18597E-02  5038   0.591E-02    0.643E-01
RMM:   6    -0.230929700403E+04    0.40428E-02   -0.16814E-02  5312   0.654E-02    0.222E-01
RMM:   7    -0.230929739726E+04   -0.39323E-03   -0.33680E-03  5161   0.333E-02    0.126E-01
RMM:   8    -0.230929723002E+04    0.16724E-03   -0.45218E-04  4225   0.131E-02    0.587E-02
RMM:   9    -0.230929718615E+04    0.43871E-04   -0.15634E-04  3552   0.858E-03    0.233E-02
RMM:  10    -0.230929717727E+04    0.88821E-05   -0.72076E-05  3107   0.606E-03
  15 F= -.23297605E+04 E0= -.23297605E+04  d E =-.302837E+00  mag=     4.0000
       N       E                     dE             d eps       ncg     rms          rms(c)
DAV:   1    -0.230921188200E+04    0.85304E-01   -0.84937E+00  4408   0.214E+00    0.109E+00
RMM:   2    -0.230937208062E+04   -0.16020E+00   -0.15914E+00  6071   0.532E-01    0.132E+00
RMM:   3    -0.230937144449E+04    0.63613E-03   -0.14842E-01  5757   0.183E-01    0.653E-01
RMM:   4    -0.230936949773E+04    0.19468E-02   -0.16151E-02  5218   0.447E-02    0.279E-01
RMM:   5    -0.230936854119E+04    0.95653E-03   -0.21025E-03  5089   0.272E-02    0.175E-01
RMM:   6    -0.230936832654E+04    0.21466E-03   -0.16461E-03  4983   0.246E-02    0.842E-02
RMM:   7    -0.230936826297E+04    0.63564E-04   -0.17615E-04  3736   0.109E-02    0.315E-02
RMM:   8    -0.230936824192E+04    0.21051E-04   -0.53631E-05  3141   0.523E-03    0.222E-02
RMM:   9    -0.230936823371E+04    0.82047E-05   -0.23012E-05  2855   0.446E-03
  16 F= -.23298312E+04 E0= -.23298312E+04  d E =-.707373E-01  mag=     4.0000
       N       E                     dE             d eps       ncg     rms          rms(c)
DAV:   1    -0.230917395182E+04    0.19429E+00   -0.12143E+01  4432   0.252E+00    0.130E+00
RMM:   2    -0.230939830671E+04   -0.22435E+00   -0.22367E+00  6036   0.615E-01    0.152E+00
RMM:   3    -0.230940059830E+04   -0.22916E-02   -0.22780E-01  5749   0.223E-01    0.788E-01
RMM:   4    -0.230939773472E+04    0.28636E-02   -0.23467E-02  5254   0.532E-02    0.335E-01
RMM:   5    -0.230939639762E+04    0.13371E-02   -0.29300E-03  5054   0.316E-02    0.204E-01
RMM:   6    -0.230939612923E+04    0.26839E-03   -0.22774E-03  5018   0.288E-02    0.103E-01
RMM:   7    -0.230939604955E+04    0.79685E-04   -0.28289E-04  4200   0.136E-02    0.443E-02
RMM:   8    -0.230939602120E+04    0.28343E-04   -0.87864E-05  3429   0.600E-03    0.329E-02
RMM:   9    -0.230939600779E+04    0.13417E-04   -0.37515E-05  2905   0.508E-03    0.866E-03
RMM:  10    -0.230939600563E+04    0.21612E-05   -0.98044E-06  2837   0.351E-03
  17 F= -.23298586E+04 E0= -.23298586E+04  d E =-.981157E-01  mag=     4.0000
       N       E                     dE             d eps       ncg     rms          rms(c)
DAV:   1    -0.230940894044E+04   -0.12933E-01   -0.18910E+00  4528   0.117E+00    0.517E-01
RMM:   2    -0.230943346752E+04   -0.24527E-01   -0.24460E-01  5879   0.234E-01    0.588E-01
RMM:   3    -0.230943281079E+04    0.65673E-03   -0.22582E-02  5485   0.817E-02    0.319E-01
RMM:   4    -0.230943198314E+04    0.82765E-03   -0.24890E-03  4718   0.223E-02    0.123E-01
RMM:   5    -0.230943178979E+04    0.19335E-03   -0.64226E-04  4949   0.166E-02    0.684E-02
RMM:   6    -0.230943176532E+04    0.24476E-04   -0.24832E-04  4377   0.112E-02    0.292E-02
RMM:   7    -0.230943175843E+04    0.68880E-05   -0.26349E-05  2893   0.601E-03
  18 F= -.23298945E+04 E0= -.23298945E+04  d E =-.358762E-01  mag=     4.0000
       N       E                     dE             d eps       ncg     rms          rms(c)
DAV:   1    -0.230935223615E+04    0.79529E-01   -0.92150E+00  4400   0.258E+00    0.112E+00
RMM:   2    -0.230946899954E+04   -0.11676E+00   -0.11777E+00  5855   0.506E-01    0.122E+00
RMM:   3    -0.230946957373E+04   -0.57418E-03   -0.11684E-01  5527   0.181E-01    0.742E-01
RMM:   4    -0.230946487919E+04    0.46945E-02   -0.12157E-02  4970   0.492E-02    0.269E-01
RMM:   5    -0.230946393194E+04    0.94725E-03   -0.29766E-03  5342   0.351E-02    0.144E-01
RMM:   6    -0.230946382611E+04    0.10583E-03   -0.11816E-03  4965   0.228E-02    0.562E-02
RMM:   7    -0.230946380311E+04    0.23006E-04   -0.13930E-04  3809   0.116E-02    0.344E-02
RMM:   8    -0.230946379217E+04    0.10939E-04   -0.78637E-05  3394   0.622E-03    0.143E-02
RMM:   9    -0.230946379454E+04   -0.23714E-05   -0.16267E-05  2854   0.444E-03
  19 F= -.23299268E+04 E0= -.23299268E+04  d E =-.681735E-01  mag=     4.0000
       N       E                     dE             d eps       ncg     rms          rms(c)
DAV:   1    -0.230948496324E+04   -0.21171E-01   -0.26276E+00  4488   0.154E+00    0.599E-01
RMM:   2    -0.230950770957E+04   -0.22746E-01   -0.20909E-01  5765   0.276E-01    0.841E-01
RMM:   3    -0.230950321402E+04    0.44956E-02   -0.19369E-02  5397   0.957E-02    0.312E-01
RMM:   4    -0.230950228952E+04    0.92449E-03   -0.25331E-03  4510   0.279E-02    0.126E-01
RMM:   5    -0.230950209436E+04    0.19516E-03   -0.78360E-04  5241   0.227E-02    0.798E-02
RMM:   6    -0.230950204145E+04    0.52914E-04   -0.23607E-04  4801   0.114E-02    0.237E-02
RMM:   7    -0.230950203283E+04    0.86159E-05   -0.24556E-05  2935   0.573E-03
  20 F= -.23299651E+04 E0= -.23299651E+04  d E =-.383449E-01  mag=     4.0000
       N       E                     dE             d eps       ncg     rms          rms(c)
DAV:   1    -0.230949601246E+04    0.60290E-02   -0.32322E+00  4432   0.171E+00    0.663E-01
RMM:   2    -0.230952382526E+04   -0.27813E-01   -0.25656E-01  5782   0.306E-01    0.925E-01
RMM:   3    -0.230951838028E+04    0.54450E-02   -0.23741E-02  5451   0.103E-01    0.346E-01
RMM:   4    -0.230951722744E+04    0.11528E-02   -0.31105E-03  4529   0.308E-02    0.139E-01
RMM:   5    -0.230951696738E+04    0.26006E-03   -0.95387E-04  5277   0.246E-02    0.894E-02
RMM:   6    -0.230951688872E+04    0.78666E-04   -0.30200E-04  4910   0.127E-02    0.273E-02
RMM:   7    -0.230951687426E+04    0.14454E-04   -0.32341E-05  2980   0.611E-03    0.118E-02
RMM:   8    -0.230951686654E+04    0.77234E-05   -0.15797E-05  2859   0.389E-03
  21 F= -.23299801E+04 E0= -.23299801E+04  d E =-.533052E-01  mag=     4.0000
       N       E                     dE             d eps       ncg     rms          rms(c)
DAV:   1    -0.230950689412E+04    0.99801E-02   -0.29964E+00  4432   0.156E+00    0.591E-01
RMM:   2    -0.230955143519E+04   -0.44541E-01   -0.42103E-01  6018   0.319E-01    0.858E-01
RMM:   3    -0.230954779295E+04    0.36422E-02   -0.38495E-02  5663   0.112E-01    0.279E-01
RMM:   4    -0.230954759298E+04    0.19997E-03   -0.49083E-03  4937   0.273E-02    0.148E-01
RMM:   5    -0.230954736665E+04    0.22632E-03   -0.85652E-04  5157   0.192E-02    0.136E-01
RMM:   6    -0.230954721285E+04    0.15381E-03   -0.67103E-04  4772   0.156E-02    0.527E-02
RMM:   7    -0.230954718497E+04    0.27880E-04   -0.45089E-05  2997   0.656E-03    0.168E-02
RMM:   8    -0.230954717984E+04    0.51282E-05   -0.13279E-05  2836   0.352E-03
  22 F= -.23300106E+04 E0= -.23300106E+04  d E =-.304998E-01  mag=     4.0000
       N       E                     dE             d eps       ncg     rms          rms(c)
DAV:   1    -0.230948877396E+04    0.58411E-01   -0.55166E+00  4408   0.212E+00    0.802E-01
RMM:   2    -0.230957126629E+04   -0.82492E-01   -0.78588E-01  5999   0.441E-01    0.114E+00
RMM:   3    -0.230956467755E+04    0.65887E-02   -0.71334E-02  5686   0.147E-01    0.375E-01
RMM:   4    -0.230956432633E+04    0.35122E-03   -0.91778E-03  4992   0.369E-02    0.201E-01
RMM:   5    -0.230956387653E+04    0.44981E-03   -0.15824E-03  5308   0.261E-02    0.185E-01
RMM:   6    -0.230956356943E+04    0.30710E-03   -0.12486E-03  5142   0.209E-02    0.742E-02
RMM:   7    -0.230956351469E+04    0.54740E-04   -0.87601E-05  3335   0.818E-03    0.245E-02
RMM:   8    -0.230956350359E+04    0.11093E-04   -0.25844E-05  2857   0.448E-03    0.124E-02
RMM:   9    -0.230956349919E+04    0.44079E-05   -0.24097E-05  2871   0.417E-03
  23 F= -.23300271E+04 E0= -.23300271E+04  d E =-.470463E-01  mag=     4.0000
       N       E                     dE             d eps       ncg     rms          rms(c)
DAV:   1    -0.230952291084E+04    0.40593E-01   -0.46172E+00  4432   0.194E+00    0.761E-01
RMM:   2    -0.230959364330E+04   -0.70732E-01   -0.70676E-01  5967   0.410E-01    0.829E-01
RMM:   3    -0.230959323507E+04    0.40823E-03   -0.66852E-02  5658   0.146E-01    0.419E-01
RMM:   4    -0.230959237987E+04    0.85521E-03   -0.78886E-03  5130   0.351E-02    0.184E-01
RMM:   5    -0.230959183999E+04    0.53988E-03   -0.12809E-03  5168   0.246E-02    0.112E-01
RMM:   6    -0.230959173121E+04    0.10878E-03   -0.65437E-04  4693   0.175E-02    0.330E-02
RMM:   7    -0.230959171799E+04    0.13214E-04   -0.66257E-05  3349   0.773E-03    0.169E-02
RMM:   8    -0.230959171085E+04    0.71461E-05   -0.19243E-05  2872   0.413E-03
  24 F= -.23300556E+04 E0= -.23300556E+04  d E =-.284991E-01  mag=     4.0000
       N       E                     dE             d eps       ncg     rms          rms(c)
DAV:   1    -0.230956230043E+04    0.29418E-01   -0.23941E+00  4496   0.139E+00    0.544E-01
RMM:   2    -0.230959860370E+04   -0.36303E-01   -0.36487E-01  5975   0.296E-01    0.566E-01
RMM:   3    -0.230959876452E+04   -0.16082E-03   -0.34343E-02  5612   0.106E-01    0.303E-01
RMM:   4    -0.230959827642E+04    0.48810E-03   -0.40406E-03  4983   0.254E-02    0.133E-01
RMM:   5    -0.230959797769E+04    0.29873E-03   -0.66257E-04  4991   0.181E-02    0.750E-02
RMM:   6    -0.230959792101E+04    0.56673E-04   -0.31709E-04  4412   0.126E-02    0.201E-02
RMM:   7    -0.230959791432E+04    0.66887E-05   -0.37496E-05  3075   0.638E-03
  25 F= -.23300620E+04 E0= -.23300620E+04  d E =-.348983E-01  mag=     4.0000
       N       E                     dE             d eps       ncg     rms          rms(c)
DAV:   1    -0.230952121396E+04    0.76707E-01   -0.52804E+00  4408   0.187E+00    0.798E-01
RMM:   2    -0.230961677432E+04   -0.95560E-01   -0.98147E-01  6012   0.417E-01    0.739E-01
RMM:   3    -0.230962275883E+04   -0.59845E-02   -0.11146E-01  5634   0.165E-01    0.470E-01
RMM:   4    -0.230962169463E+04    0.10642E-02   -0.10273E-02  5284   0.357E-02    0.220E-01
RMM:   5    -0.230962101777E+04    0.67686E-03   -0.17410E-03  5007   0.227E-02    0.118E-01
RMM:   6    -0.230962093667E+04    0.81104E-04   -0.96752E-04  4790   0.166E-02    0.601E-02
RMM:   7    -0.230962090521E+04    0.31451E-04   -0.14663E-04  3409   0.108E-02    0.382E-02
RMM:   8    -0.230962088723E+04    0.17983E-04   -0.46894E-05  2850   0.471E-03    0.141E-02
RMM:   9    -0.230962088346E+04    0.37754E-05   -0.15079E-05  2853   0.310E-03
  26 F= -.23300860E+04 E0= -.23300860E+04  d E =-.239930E-01  mag=     4.0000
       N       E                     dE             d eps       ncg     rms          rms(c)
DAV:   1    -0.230958232260E+04    0.38565E-01   -0.22569E+00  4448   0.123E+00    0.519E-01
RMM:   2    -0.230962290376E+04   -0.40581E-01   -0.41653E-01  6009   0.272E-01    0.472E-01
RMM:   3    -0.230962541734E+04   -0.25136E-02   -0.45657E-02  5540   0.106E-01    0.303E-01
RMM:   4    -0.230962496735E+04    0.44998E-03   -0.42994E-03  4982   0.232E-02    0.143E-01
RMM:   5    -0.230962467575E+04    0.29160E-03   -0.70321E-04  4595   0.151E-02    0.755E-02
RMM:   6    -0.230962463861E+04    0.37138E-04   -0.40979E-04  4387   0.115E-02    0.396E-02
RMM:   7    -0.230962462334E+04    0.15270E-04   -0.63855E-05  2878   0.825E-03    0.248E-02
RMM:   8    -0.230962461494E+04    0.84019E-05   -0.22223E-05  2833   0.382E-03
  27 F= -.23300904E+04 E0= -.23300904E+04  d E =-.284026E-01  mag=     4.0000
       N       E                     dE             d eps       ncg     rms          rms(c)
DAV:   1    -0.230956922006E+04    0.55403E-01   -0.39360E+00  4416   0.156E+00    0.669E-01
RMM:   2    -0.230963936290E+04   -0.70143E-01   -0.72450E-01  5935   0.338E-01    0.593E-01
RMM:   3    -0.230964464322E+04   -0.52803E-02   -0.81659E-02  5391   0.142E-01    0.367E-01
RMM:   4    -0.230964406219E+04    0.58103E-03   -0.74512E-03  5197   0.299E-02    0.199E-01
RMM:   5    -0.230964357209E+04    0.49010E-03   -0.13483E-03  4911   0.193E-02    0.107E-01
RMM:   6    -0.230964351608E+04    0.56007E-04   -0.75351E-04  4610   0.143E-02    0.642E-02
RMM:   7    -0.230964348134E+04    0.34743E-04   -0.14727E-04  3062   0.105E-02    0.329E-02
RMM:   8    -0.230964346604E+04    0.15295E-04   -0.28724E-05  2838   0.404E-03    0.997E-03
RMM:   9    -0.230964346359E+04    0.24571E-05   -0.18571E-05  2865   0.283E-03
  28 F= -.23301102E+04 E0= -.23301102E+04  d E =-.198010E-01  mag=     4.0000
       N       E                     dE             d eps       ncg     rms          rms(c)
DAV:   1    -0.230958896897E+04    0.54497E-01   -0.31497E+00  4416   0.140E+00    0.596E-01
RMM:   2    -0.230964497682E+04   -0.56008E-01   -0.57879E-01  5954   0.302E-01    0.522E-01
RMM:   3    -0.230964919374E+04   -0.42169E-02   -0.63924E-02  5376   0.123E-01    0.328E-01
RMM:   4    -0.230964871762E+04    0.47613E-03   -0.59314E-03  5112   0.266E-02    0.179E-01
RMM:   5    -0.230964831863E+04    0.39899E-03   -0.10896E-03  4786   0.173E-02    0.965E-02
RMM:   6    -0.230964826885E+04    0.49778E-04   -0.60579E-04  4492   0.130E-02    0.568E-02
RMM:   7    -0.230964824050E+04    0.28347E-04   -0.11587E-04  2964   0.959E-03    0.288E-02
RMM:   8    -0.230964822838E+04    0.12126E-04   -0.24201E-05  2836   0.388E-03    0.873E-03
RMM:   9    -0.230964822654E+04    0.18420E-05   -0.15576E-05  2862   0.272E-03
  29 F= -.23301159E+04 E0= -.23301159E+04  d E =-.254459E-01  mag=     4.0000
       N       E                     dE             d eps       ncg     rms          rms(c)
DAV:   1    -0.230960984305E+04    0.38385E-01   -0.36167E+00  4400   0.158E+00    0.647E-01
RMM:   2    -0.230966312497E+04   -0.53282E-01   -0.55176E-01  5921   0.323E-01    0.575E-01
RMM:   3    -0.230966626192E+04   -0.31369E-02   -0.56763E-02  5423   0.119E-01    0.351E-01
RMM:   4    -0.230966562538E+04    0.63654E-03   -0.62292E-03  5066   0.288E-02    0.186E-01
RMM:   5    -0.230966519463E+04    0.43075E-03   -0.12761E-03  5083   0.207E-02    0.892E-02
RMM:   6    -0.230966515433E+04    0.40300E-04   -0.45125E-04  4587   0.130E-02    0.496E-02
RMM:   7    -0.230966513235E+04    0.21981E-04   -0.80861E-05  3097   0.850E-03    0.226E-02
RMM:   8    -0.230966512466E+04    0.76896E-05   -0.19564E-05  2838   0.392E-03
  30 F= -.23301332E+04 E0= -.23301332E+04  d E =-.173964E-01  mag=     4.0000
       N       E                     dE             d eps       ncg     rms          rms(c)
DAV:   1    -0.230964662589E+04    0.18506E-01   -0.13957E+00  4528   0.983E-01    0.399E-01
RMM:   2    -0.230966702208E+04   -0.20396E-01   -0.21193E-01  5879   0.198E-01    0.340E-01
RMM:   3    -0.230966828486E+04   -0.12628E-02   -0.20806E-02  5319   0.768E-02    0.219E-01
RMM:   4    -0.230966802737E+04    0.25749E-03   -0.23513E-03  4691   0.181E-02    0.117E-01
RMM:   5    -0.230966785612E+04    0.17125E-03   -0.49419E-04  4492   0.134E-02    0.563E-02
RMM:   6    -0.230966783865E+04    0.17474E-04   -0.17969E-04  4126   0.915E-03    0.298E-02
RMM:   7    -0.230966782978E+04    0.88616E-05   -0.29977E-05  2860   0.629E-03
  31 F= -.23301363E+04 E0= -.23301363E+04  d E =-.204278E-01  mag=     4.0000
       N       E                     dE             d eps       ncg     rms          rms(c)
DAV:   1    -0.230961931242E+04    0.48526E-01   -0.39205E+00  4400   0.161E+00    0.653E-01
RMM:   2    -0.230967797430E+04   -0.58662E-01   -0.61080E-01  5910   0.341E-01    0.557E-01
RMM:   3    -0.230968197474E+04   -0.40004E-02   -0.67507E-02  5580   0.127E-01    0.348E-01
RMM:   4    -0.230968131376E+04    0.66098E-03   -0.62940E-03  5074   0.296E-02    0.194E-01
RMM:   5    -0.230968079648E+04    0.51728E-03   -0.15667E-03  5219   0.222E-02    0.921E-02
RMM:   6    -0.230968075371E+04    0.42766E-04   -0.48738E-04  4707   0.133E-02    0.566E-02
RMM:   7    -0.230968073099E+04    0.22722E-04   -0.90421E-05  3107   0.785E-03    0.236E-02
RMM:   8    -0.230968072474E+04    0.62460E-05   -0.21191E-05  2849   0.423E-03
  32 F= -.23301491E+04 E0= -.23301491E+04  d E =-.128639E-01  mag=     4.0000
       N       E                     dE             d eps       ncg     rms          rms(c)
DAV:   1    -0.230967948609E+04    0.12449E-02   -0.97152E-02  4792   0.254E-01    0.102E-01
RMM:   2    -0.230968092354E+04   -0.14374E-02   -0.15022E-02  6031   0.533E-02    0.817E-02
RMM:   3    -0.230968103142E+04   -0.10788E-03   -0.16259E-03  3392   0.219E-02    0.550E-02
RMM:   4    -0.230968101476E+04    0.16659E-04   -0.15792E-04  2898   0.592E-03    0.319E-02
RMM:   5    -0.230968100102E+04    0.13736E-04   -0.41974E-05  2875   0.452E-03    0.145E-02
RMM:   6    -0.230968100071E+04    0.31154E-06   -0.14291E-05  2857   0.399E-03
  33 F= -.23301494E+04 E0= -.23301494E+04  d E =-.131373E-01  mag=     4.0000
       N       E                     dE             d eps       ncg     rms          rms(c)
DAV:   1    -0.230967029322E+04    0.10708E-01   -0.11735E+00  4416   0.948E-01    0.354E-01
RMM:   2    -0.230968648162E+04   -0.16188E-01   -0.16921E-01  5797   0.192E-01    0.282E-01
RMM:   3    -0.230968751109E+04   -0.10295E-02   -0.17676E-02  5317   0.742E-02    0.205E-01
RMM:   4    -0.230968721427E+04    0.29683E-03   -0.16952E-03  4688   0.175E-02    0.100E-01
RMM:   5    -0.230968706121E+04    0.15306E-03   -0.43737E-04  4481   0.134E-02    0.447E-02
RMM:   6    -0.230968704966E+04    0.11546E-04   -0.13118E-04  4104   0.886E-03    0.231E-02
RMM:   7    -0.230968704654E+04    0.31228E-05   -0.23982E-05  2844   0.592E-03
  34 F= -.23301556E+04 E0= -.23301556E+04  d E =-.620240E-02  mag=     4.0000
       N       E                     dE             d eps       ncg     rms          rms(c)
DAV:   1    -0.230968402952E+04    0.30201E-02   -0.25170E-01  4496   0.439E-01    0.164E-01
RMM:   2    -0.230968750901E+04   -0.34795E-02   -0.36432E-02  5827   0.910E-02    0.129E-01
RMM:   3    -0.230968772699E+04   -0.21798E-03   -0.37203E-03  4565   0.345E-02    0.922E-02
RMM:   4    -0.230968767082E+04    0.56175E-04   -0.35762E-04  3065   0.874E-03    0.467E-02
RMM:   5    -0.230968763674E+04    0.34082E-04   -0.96600E-05  3351   0.684E-03    0.211E-02
RMM:   6    -0.230968763489E+04    0.18507E-05   -0.28972E-05  2900   0.575E-03
  35 F= -.23301563E+04 E0= -.23301563E+04  d E =-.686540E-02  mag=     4.0000
       N       E                     dE             d eps       ncg     rms          rms(c)
DAV:   1    -0.230968174317E+04    0.58936E-02   -0.70873E-01  4416   0.735E-01    0.260E-01
RMM:   2    -0.230969273075E+04   -0.10988E-01   -0.11127E-01  5790   0.146E-01    0.239E-01
RMM:   3    -0.230969334210E+04   -0.61135E-03   -0.11128E-02  5140   0.538E-02    0.155E-01
RMM:   4    -0.230969320477E+04    0.13733E-03   -0.10800E-03  3746   0.123E-02    0.724E-02
RMM:   5    -0.230969313288E+04    0.71889E-04   -0.17468E-04  3607   0.855E-03    0.372E-02
RMM:   6    -0.230969312592E+04    0.69653E-05   -0.82884E-05  3392   0.723E-03
  36 F= -.23301621E+04 E0= -.23301621E+04  d E =-.577778E-02  mag=     4.0000
       N       E                     dE             d eps       ncg     rms          rms(c)
DAV:   1    -0.230959868900E+04    0.94444E-01   -0.63700E+00  4400   0.221E+00    0.778E-01
RMM:   2    -0.230969662268E+04   -0.97934E-01   -0.99872E-01  5798   0.437E-01    0.683E-01
RMM:   3    -0.230970474218E+04   -0.81195E-02   -0.11867E-01  5380   0.170E-01    0.506E-01
RMM:   4    -0.230970309400E+04    0.16482E-02   -0.10016E-02  5215   0.370E-02    0.225E-01
RMM:   5    -0.230970246199E+04    0.63201E-03   -0.17479E-03  5016   0.238E-02    0.126E-01
RMM:   6    -0.230970233482E+04    0.12717E-03   -0.99525E-04  4800   0.177E-02    0.511E-02
RMM:   7    -0.230970231160E+04    0.23225E-04   -0.12535E-04  3639   0.119E-02    0.247E-02
RMM:   8    -0.230970230582E+04    0.57759E-05   -0.24326E-05  2862   0.380E-03
  37 F= -.23301721E+04 E0= -.23301721E+04  d E =-.158449E-01  mag=     4.0000
       N       E                     dE             d eps       ncg     rms          rms(c)
DAV:   1    -0.230969475716E+04    0.75544E-02   -0.90089E-01  4464   0.808E-01    0.306E-01
RMM:   2    -0.230970942927E+04   -0.14672E-01   -0.14872E-01  5736   0.164E-01    0.275E-01
RMM:   3    -0.230971034438E+04   -0.91512E-03   -0.15482E-02  5122   0.688E-02    0.181E-01
RMM:   4    -0.230971015079E+04    0.19360E-03   -0.14520E-03  4276   0.145E-02    0.837E-02
RMM:   5    -0.230971005328E+04    0.97507E-04   -0.24039E-04  3831   0.988E-03    0.429E-02
RMM:   6    -0.230971004451E+04    0.87741E-05   -0.12065E-04  3796   0.803E-03    0.159E-02
RMM:   7    -0.230971004409E+04    0.42205E-06   -0.15415E-05  2845   0.556E-03
  38 F= -.23301803E+04 E0= -.23301803E+04  d E =-.820059E-02  mag=     4.0000
       N       E                     dE             d eps       ncg     rms          rms(c)
DAV:   1    -0.230961219772E+04    0.97847E-01   -0.61351E+00  4400   0.211E+00    0.795E-01
RMM:   2    -0.230971176609E+04   -0.99568E-01   -0.10146E+00  5745   0.428E-01    0.701E-01
RMM:   3    -0.230971986284E+04   -0.80967E-02   -0.11812E-01  5260   0.176E-01    0.522E-01
RMM:   4    -0.230971793790E+04    0.19249E-02   -0.99583E-03  5155   0.378E-02    0.226E-01
RMM:   5    -0.230971729559E+04    0.64230E-03   -0.18608E-03  5023   0.242E-02    0.125E-01
RMM:   6    -0.230971717596E+04    0.11963E-03   -0.10771E-03  4729   0.182E-02    0.471E-02
RMM:   7    -0.230971715816E+04    0.17805E-04   -0.11435E-04  3482   0.122E-02    0.243E-02
RMM:   8    -0.230971715396E+04    0.41965E-05   -0.26173E-05  2856   0.374E-03
  39 F= -.23301887E+04 E0= -.23301887E+04  d E =-.165509E-01  mag=     4.0000
       N       E                     dE             d eps       ncg     rms          rms(c)
DAV:   1    -0.230970737285E+04    0.97853E-02   -0.79367E-01  4496   0.715E-01    0.276E-01
RMM:   2    -0.230972058346E+04   -0.13211E-01   -0.13297E-01  5824   0.145E-01    0.268E-01
RMM:   3    -0.230972132657E+04   -0.74312E-03   -0.13232E-02  5037   0.560E-02    0.164E-01
RMM:   4    -0.230972118425E+04    0.14232E-03   -0.12631E-03  3546   0.124E-02    0.795E-02
RMM:   5    -0.230972109941E+04    0.84834E-04   -0.20220E-04  3499   0.830E-03    0.418E-02
RMM:   6    -0.230972109231E+04    0.71047E-05   -0.10000E-04  3329   0.727E-03
  40 F= -.23301931E+04 E0= -.23301931E+04  d E =-.442730E-02  mag=     4.0000
       N       E                     dE             d eps       ncg     rms          rms(c)
DAV:   1    -0.230960078151E+04    0.12032E+00   -0.71180E+00  4400   0.214E+00    0.823E-01
RMM:   2    -0.230971879612E+04   -0.11801E+00   -0.11964E+00  5801   0.433E-01    0.787E-01
RMM:   3    -0.230972836171E+04   -0.95656E-02   -0.13996E-01  5330   0.164E-01    0.564E-01
RMM:   4    -0.230972624336E+04    0.21183E-02   -0.11552E-02  5212   0.368E-02    0.246E-01
RMM:   5    -0.230972551136E+04    0.73200E-03   -0.20221E-03  4977   0.226E-02    0.140E-01
RMM:   6    -0.230972538089E+04    0.13047E-03   -0.11470E-03  4779   0.176E-02    0.515E-02
RMM:   7    -0.230972536691E+04    0.13977E-04   -0.13103E-04  3364   0.116E-02    0.261E-02
RMM:   8    -0.230972536141E+04    0.54992E-05   -0.29638E-05  2861   0.379E-03
  41 F= -.23301989E+04 E0= -.23301989E+04  d E =-.101984E-01  mag=     4.0000
       N       E                     dE             d eps       ncg     rms          rms(c)
DAV:   1    -0.230971451324E+04    0.10854E-01   -0.12268E+00  4440   0.814E-01    0.332E-01
RMM:   2    -0.230973326934E+04   -0.18756E-01   -0.19159E-01  5884   0.169E-01    0.308E-01
RMM:   3    -0.230973451435E+04   -0.12450E-02   -0.18863E-02  5299   0.627E-02    0.217E-01
RMM:   4    -0.230973424168E+04    0.27267E-03   -0.18423E-03  4283   0.155E-02    0.105E-01
RMM:   5    -0.230973409982E+04    0.14186E-03   -0.37236E-04  3933   0.110E-02    0.520E-02
RMM:   6    -0.230973409279E+04    0.70286E-05   -0.14030E-04  3540   0.849E-03    0.187E-02
RMM:   7    -0.230973409328E+04   -0.49507E-06   -0.21431E-05  2842   0.566E-03
  42 F= -.23302080E+04 E0= -.23302080E+04  d E =-.908839E-02  mag=     4.0000
       N       E                     dE             d eps       ncg     rms          rms(c)
DAV:   1    -0.230964834830E+04    0.85744E-01   -0.57649E+00  4400   0.177E+00    0.716E-01
RMM:   2    -0.230973569508E+04   -0.87347E-01   -0.89761E-01  5858   0.368E-01    0.645E-01
RMM:   3    -0.230974374521E+04   -0.80501E-02   -0.10633E-01  5566   0.140E-01    0.513E-01
RMM:   4    -0.230974203855E+04    0.17067E-02   -0.89234E-03  5303   0.332E-02    0.234E-01
RMM:   5    -0.230974139501E+04    0.64354E-03   -0.18293E-03  4898   0.221E-02    0.129E-01
RMM:   6    -0.230974129113E+04    0.10388E-03   -0.90948E-04  4837   0.161E-02    0.483E-02
RMM:   7    -0.230974127849E+04    0.12644E-04   -0.10037E-04  3142   0.100E-02    0.237E-02
RMM:   8    -0.230974127595E+04    0.25425E-05   -0.23495E-05  2878   0.377E-03
  43 F= -.23302159E+04 E0= -.23302159E+04  d E =-.170683E-01  mag=     4.0000
       N       E                     dE             d eps       ncg     rms          rms(c)
DAV:   1    -0.230970876149E+04    0.32517E-01   -0.23806E+00  4400   0.119E+00    0.495E-01
RMM:   2    -0.230974638255E+04   -0.37621E-01   -0.39057E-01  5870   0.249E-01    0.371E-01
RMM:   3    -0.230975014340E+04   -0.37608E-02   -0.46076E-02  5488   0.100E-01    0.333E-01
RMM:   4    -0.230974944839E+04    0.69501E-03   -0.39238E-03  5005   0.228E-02    0.155E-01
RMM:   5    -0.230974915146E+04    0.29693E-03   -0.79010E-04  4609   0.154E-02    0.822E-02
RMM:   6    -0.230974908640E+04    0.65062E-04   -0.36895E-04  4502   0.117E-02    0.288E-02
RMM:   7    -0.230974908161E+04    0.47953E-05   -0.46319E-05  2930   0.803E-03
  44 F= -.23302242E+04 E0= -.23302242E+04  d E =-.829230E-02  mag=     4.0000
       N       E                     dE             d eps       ncg     rms          rms(c)
DAV:   1    -0.230973915596E+04    0.99304E-02   -0.63245E-01  4512   0.613E-01    0.256E-01
RMM:   2    -0.230974925738E+04   -0.10101E-01   -0.10455E-01  5878   0.130E-01    0.202E-01
RMM:   3    -0.230975008459E+04   -0.82721E-03   -0.10707E-02  5115   0.475E-02    0.169E-01
RMM:   4    -0.230974991298E+04    0.17161E-03   -0.10049E-03  3566   0.120E-02    0.773E-02
RMM:   5    -0.230974983003E+04    0.82950E-04   -0.20615E-04  3753   0.870E-03    0.389E-02
RMM:   6    -0.230974981899E+04    0.11043E-04   -0.79672E-05  3363   0.726E-03    0.153E-02
RMM:   7    -0.230974981775E+04    0.12416E-05   -0.14861E-05  2829   0.527E-03
  45 F= -.23302252E+04 E0= -.23302252E+04  d E =-.928412E-02  mag=     4.0000
       N       E                     dE             d eps       ncg     rms          rms(c)
DAV:   1    -0.230972344558E+04    0.26373E-01   -0.17528E+00  4400   0.106E+00    0.417E-01
RMM:   2    -0.230975335025E+04   -0.29905E-01   -0.30850E-01  5834   0.219E-01    0.303E-01
RMM:   3    -0.230975655541E+04   -0.32052E-02   -0.37055E-02  5396   0.910E-02    0.277E-01
RMM:   4    -0.230975617978E+04    0.37563E-03   -0.31441E-03  4709   0.198E-02    0.139E-01
RMM:   5    -0.230975597951E+04    0.20028E-03   -0.51971E-04  4249   0.128E-02    0.758E-02
RMM:   6    -0.230975592310E+04    0.56410E-04   -0.26296E-04  4154   0.105E-02    0.250E-02
RMM:   7    -0.230975592324E+04   -0.14144E-06   -0.34507E-05  2857   0.744E-03
  46 F= -.23302322E+04 E0= -.23302322E+04  d E =-.697169E-02  mag=     4.0000
       N       E                     dE             d eps       ncg     rms          rms(c)
DAV:   1    -0.230970585846E+04    0.50065E-01   -0.27351E+00  4400   0.132E+00    0.522E-01
RMM:   2    -0.230975253611E+04   -0.46678E-01   -0.48239E-01  5813   0.273E-01    0.377E-01
RMM:   3    -0.230975770658E+04   -0.51705E-02   -0.59701E-02  5445   0.112E-01    0.349E-01
RMM:   4    -0.230975709135E+04    0.61523E-03   -0.49376E-03  5045   0.246E-02    0.175E-01
RMM:   5    -0.230975678349E+04    0.30786E-03   -0.80827E-04  4576   0.154E-02    0.976E-02
RMM:   6    -0.230975668500E+04    0.98486E-04   -0.43948E-04  4424   0.126E-02    0.325E-02
RMM:   7    -0.230975668189E+04    0.31117E-05   -0.56662E-05  3004   0.881E-03
  47 F= -.23302341E+04 E0= -.23302341E+04  d E =-.882616E-02  mag=     4.0000
       N       E                     dE             d eps       ncg     rms          rms(c)
DAV:   1    -0.230974082929E+04    0.15856E-01   -0.10619E+00  4440   0.818E-01    0.313E-01
RMM:   2    -0.230975913177E+04   -0.18302E-01   -0.18824E-01  5795   0.165E-01    0.229E-01
RMM:   3    -0.230976098194E+04   -0.18502E-02   -0.20866E-02  5210   0.694E-02    0.208E-01
RMM:   4    -0.230976079267E+04    0.18927E-03   -0.18832E-03  3458   0.142E-02    0.101E-01
RMM:   5    -0.230976068703E+04    0.10564E-03   -0.24878E-04  3319   0.867E-03    0.569E-02
RMM:   6    -0.230976066094E+04    0.26086E-04   -0.16261E-04  3701   0.797E-03    0.199E-02
RMM:   7    -0.230976066016E+04    0.78308E-06   -0.17594E-05  2838   0.563E-03
  48 F= -.23302388E+04 E0= -.23302388E+04  d E =-.475543E-02  mag=     4.0000
       N       E                     dE             d eps       ncg     rms          rms(c)
DAV:   1    -0.230958370364E+04    0.17696E+00   -0.95228E+00  4400   0.245E+00    0.932E-01
RMM:   2    -0.230974873887E+04   -0.16504E+00   -0.17061E+00  5871   0.499E-01    0.640E-01
RMM:   3    -0.230976708877E+04   -0.18350E-01   -0.20389E-01  5480   0.201E-01    0.614E-01
RMM:   4    -0.230976535673E+04    0.17320E-02   -0.17144E-02  5647   0.415E-02    0.322E-01
RMM:   5    -0.230976437674E+04    0.97998E-03   -0.23417E-03  4924   0.223E-02    0.194E-01
RMM:   6    -0.230976400114E+04    0.37560E-03   -0.19138E-03  4729   0.209E-02    0.706E-02
RMM:   7    -0.230976397131E+04    0.29834E-04   -0.21483E-04  4078   0.131E-02    0.303E-02
RMM:   8    -0.230976396644E+04    0.48620E-05   -0.40341E-05  2905   0.442E-03
  49 F= -.23302445E+04 E0= -.23302445E+04  d E =-.103976E-01  mag=     4.0000
       N       E                     dE             d eps       ncg     rms          rms(c)
DAV:   1    -0.230974277349E+04    0.21198E-01   -0.16643E+00  4440   0.107E+00    0.408E-01
RMM:   2    -0.230976869688E+04   -0.25923E-01   -0.27005E-01  5787   0.219E-01    0.270E-01
RMM:   3    -0.230977127566E+04   -0.25788E-02   -0.29629E-02  5382   0.878E-02    0.266E-01
RMM:   4    -0.230977091055E+04    0.36511E-03   -0.27190E-03  4742   0.196E-02    0.135E-01
RMM:   5    -0.230977070439E+04    0.20616E-03   -0.50259E-04  4328   0.134E-02    0.711E-02
RMM:   6    -0.230977065323E+04    0.51166E-04   -0.31906E-04  4266   0.114E-02    0.218E-02
RMM:   7    -0.230977064829E+04    0.49396E-05   -0.32233E-05  2853   0.773E-03
  50 F= -.23302520E+04 E0= -.23302520E+04  d E =-.755953E-02  mag=     4.0000
       N       E                     dE             d eps       ncg     rms          rms(c)
DAV:   1    -0.230975730142E+04    0.13352E-01   -0.85432E-01  4480   0.767E-01    0.293E-01
RMM:   2    -0.230977065634E+04   -0.13355E-01   -0.13883E-01  5763   0.157E-01    0.203E-01
RMM:   3    -0.230977192051E+04   -0.12642E-02   -0.14452E-02  5245   0.611E-02    0.201E-01
RMM:   4    -0.230977169463E+04    0.22588E-03   -0.13812E-03  3907   0.143E-02    0.936E-02
RMM:   5    -0.230977158740E+04    0.10723E-03   -0.25643E-04  3837   0.104E-02    0.486E-02
RMM:   6    -0.230977156370E+04    0.23699E-04   -0.15331E-04  3944   0.882E-03    0.150E-02
RMM:   7    -0.230977156102E+04    0.26750E-05   -0.17931E-05  2833   0.615E-03
  51 F= -.23302536E+04 E0= -.23302536E+04  d E =-.909787E-02  mag=     4.0000
       N       E                     dE             d eps       ncg     rms          rms(c)
DAV:   1    -0.230976655735E+04    0.50063E-02   -0.64630E-01  4408   0.692E-01    0.252E-01
RMM:   2    -0.230977497237E+04   -0.84150E-02   -0.89116E-02  5753   0.135E-01    0.144E-01
RMM:   3    -0.230977571848E+04   -0.74612E-03   -0.92523E-03  5111   0.546E-02    0.131E-01
RMM:   4    -0.230977568755E+04    0.30930E-04   -0.93602E-04  3591   0.124E-02    0.956E-02
RMM:   5    -0.230977558371E+04    0.10385E-03   -0.19827E-04  3664   0.948E-03    0.409E-02
RMM:   6    -0.230977556688E+04    0.16823E-04   -0.99229E-05  3791   0.771E-03    0.121E-02
RMM:   7    -0.230977556488E+04    0.20066E-05   -0.12029E-05  2831   0.545E-03
  52 F= -.23302580E+04 E0= -.23302580E+04  d E =-.442886E-02  mag=     4.0000
       N       E                     dE             d eps       ncg     rms          rms(c)
DAV:   1    -0.230977081688E+04    0.47500E-02   -0.38753E-01  4464   0.536E-01    0.195E-01
RMM:   2    -0.230977587485E+04   -0.50580E-02   -0.53553E-02  5751   0.105E-01    0.111E-01
RMM:   3    -0.230977630683E+04   -0.43198E-03   -0.54098E-03  4900   0.433E-02    0.101E-01
RMM:   4    -0.230977628853E+04    0.18309E-04   -0.55700E-04  3134   0.979E-03    0.746E-02
RMM:   5    -0.230977622155E+04    0.66975E-04   -0.12109E-04  3247   0.755E-03    0.311E-02
RMM:   6    -0.230977620979E+04    0.11765E-04   -0.59308E-05  3260   0.669E-03    0.903E-03
RMM:   7    -0.230977620805E+04    0.17397E-05   -0.95893E-06  2821   0.488E-03
  53 F= -.23302590E+04 E0= -.23302590E+04  d E =-.539973E-02  mag=     4.0000
       N       E                     dE             d eps       ncg     rms          rms(c)
DAV:   1    -0.230976949103E+04    0.67188E-02   -0.76510E-01  4400   0.825E-01    0.276E-01
RMM:   2    -0.230977899089E+04   -0.94999E-02   -0.99180E-02  5674   0.154E-01    0.149E-01
RMM:   3    -0.230977974382E+04   -0.75292E-03   -0.10567E-02  5123   0.676E-02    0.978E-02
RMM:   4    -0.230977973286E+04    0.10950E-04   -0.93974E-04  4146   0.144E-02    0.777E-02
RMM:   5    -0.230977969059E+04    0.42278E-04   -0.23113E-04  3573   0.105E-02    0.587E-02
RMM:   6    -0.230977966059E+04    0.29997E-04   -0.91368E-05  3572   0.751E-03    0.254E-02
RMM:   7    -0.230977965692E+04    0.36681E-05   -0.15502E-05  2838   0.541E-03
  54 F= -.23302628E+04 E0= -.23302628E+04  d E =-.385622E-02  mag=     4.0000
       N       E                     dE             d eps       ncg     rms          rms(c)
DAV:   1    -0.230977204827E+04    0.76123E-02   -0.62512E-01  4400   0.746E-01    0.250E-01
RMM:   2    -0.230977983985E+04   -0.77916E-02   -0.81310E-02  5610   0.139E-01    0.137E-01
RMM:   3    -0.230978043890E+04   -0.59905E-03   -0.85172E-03  5114   0.594E-02    0.935E-02
RMM:   4    -0.230978042546E+04    0.13437E-04   -0.77115E-04  3851   0.129E-02    0.729E-02
RMM:   5    -0.230978038203E+04    0.43432E-04   -0.19118E-04  3359   0.974E-03    0.500E-02
RMM:   6    -0.230978036037E+04    0.21665E-04   -0.80716E-05  3558   0.729E-03    0.227E-02
RMM:   7    -0.230978035711E+04    0.32516E-05   -0.13728E-05  2835   0.530E-03
  55 F= -.23302639E+04 E0= -.23302639E+04  d E =-.492343E-02  mag=     4.0000
       N       E                     dE             d eps       ncg     rms          rms(c)
DAV:   1    -0.230977086798E+04    0.94924E-02   -0.85306E-01  4400   0.837E-01    0.282E-01
RMM:   2    -0.230978276402E+04   -0.11896E-01   -0.12268E-01  5704   0.158E-01    0.185E-01
RMM:   3    -0.230978370553E+04   -0.94151E-03   -0.13298E-02  5228   0.659E-02    0.133E-01
RMM:   4    -0.230978363900E+04    0.66536E-04   -0.11612E-03  3955   0.137E-02    0.809E-02
RMM:   5    -0.230978356747E+04    0.71532E-04   -0.18837E-04  3409   0.933E-03    0.461E-02
RMM:   6    -0.230978355436E+04    0.13106E-04   -0.11807E-04  3885   0.773E-03    0.301E-02
RMM:   7    -0.230978354665E+04    0.77156E-05   -0.21253E-05  2829   0.571E-03
  56 F= -.23302677E+04 E0= -.23302677E+04  d E =-.378059E-02  mag=     4.0000
       N       E                     dE             d eps       ncg     rms          rms(c)
DAV:   1    -0.230972980654E+04    0.53748E-01   -0.35209E+00  4400   0.170E+00    0.575E-01
RMM:   2    -0.230977918618E+04   -0.49380E-01   -0.50939E-01  5730   0.322E-01    0.386E-01
RMM:   3    -0.230978306131E+04   -0.38751E-02   -0.57160E-02  5388   0.132E-01    0.267E-01
RMM:   4    -0.230978280652E+04    0.25479E-03   -0.47931E-03  5009   0.274E-02    0.162E-01
RMM:   5    -0.230978251935E+04    0.28717E-03   -0.81492E-04  4580   0.172E-02    0.979E-02
RMM:   6    -0.230978245060E+04    0.68754E-04   -0.46597E-04  4644   0.127E-02    0.669E-02
RMM:   7    -0.230978241054E+04    0.40054E-04   -0.95231E-05  3046   0.935E-03    0.196E-02
RMM:   8    -0.230978240577E+04    0.47713E-05   -0.17090E-05  2848   0.377E-03
  57 F= -.23302677E+04 E0= -.23302677E+04  d E =-.384537E-02  mag=     4.0000
       N       E                     dE             d eps       ncg     rms          rms(c)
DAV:   1    -0.230977245084E+04    0.99597E-02   -0.79579E-01  4400   0.808E-01    0.269E-01
RMM:   2    -0.230978346343E+04   -0.11013E-01   -0.11386E-01  5710   0.152E-01    0.161E-01
RMM:   3    -0.230978435467E+04   -0.89124E-03   -0.11769E-02  5184   0.597E-02    0.125E-01
RMM:   4    -0.230978428485E+04    0.69821E-04   -0.10845E-03  3626   0.131E-02    0.795E-02
RMM:   5    -0.230978420953E+04    0.75319E-04   -0.18837E-04  3607   0.927E-03    0.389E-02
RMM:   6    -0.230978420083E+04    0.86976E-05   -0.85133E-05  3408   0.720E-03
  58 F= -.23302689E+04 E0= -.23302689E+04  d E =-.506637E-02  mag=     4.0000
       N       E                     dE             d eps       ncg     rms          rms(c)
DAV:   1    -0.230977060201E+04    0.13608E-01   -0.93734E-01  4400   0.854E-01    0.326E-01
RMM:   2    -0.230978538470E+04   -0.14783E-01   -0.15218E-01  5832   0.176E-01    0.206E-01
RMM:   3    -0.230978656047E+04   -0.11758E-02   -0.16574E-02  5384   0.731E-02    0.146E-01
RMM:   4    -0.230978645508E+04    0.10539E-03   -0.14565E-03  4274   0.159E-02    0.940E-02
RMM:   5    -0.230978635110E+04    0.10398E-03   -0.27199E-04  3974   0.111E-02    0.491E-02
RMM:   6    -0.230978632612E+04    0.24973E-04   -0.13902E-04  4071   0.848E-03    0.315E-02
RMM:   7    -0.230978631509E+04    0.11028E-04   -0.26182E-05  2832   0.609E-03    0.856E-03
RMM:   8    -0.230978631291E+04    0.21883E-05   -0.72037E-06  2834   0.278E-03
  59 F= -.23302718E+04 E0= -.23302718E+04  d E =-.281067E-02  mag=     4.0000
       N       E                     dE             d eps       ncg     rms          rms(c)
DAV:   1    -0.230978516325E+04    0.11518E-02   -0.64326E-02  4752   0.224E-01    0.850E-02
RMM:   2    -0.230978617837E+04   -0.10151E-02   -0.10463E-02  5806   0.462E-02    0.523E-02
RMM:   3    -0.230978625743E+04   -0.79060E-04   -0.11069E-03  3247   0.188E-02    0.369E-02
RMM:   4    -0.230978625159E+04    0.58372E-05   -0.10160E-04  2865   0.501E-03    0.249E-02
RMM:   5    -0.230978624388E+04    0.77096E-05   -0.20468E-05  2821   0.354E-03
  60 F= -.23302719E+04 E0= -.23302719E+04  d E =-.292473E-02  mag=     4.0000
       N       E                     dE             d eps       ncg     rms          rms(c)
DAV:   1    -0.230977402855E+04    0.12223E-01   -0.78348E-01  4400   0.728E-01    0.292E-01
RMM:   2    -0.230978752360E+04   -0.13495E-01   -0.13885E-01  5907   0.153E-01    0.179E-01
RMM:   3    -0.230978864307E+04   -0.11195E-02   -0.14894E-02  5368   0.587E-02    0.120E-01
RMM:   4    -0.230978861471E+04    0.28352E-04   -0.13399E-03  3511   0.131E-02    0.847E-02
RMM:   5    -0.230978853307E+04    0.81647E-04   -0.22317E-04  3362   0.892E-03    0.470E-02
RMM:   6    -0.230978851900E+04    0.14070E-04   -0.12027E-04  3725   0.749E-03    0.326E-02
RMM:   7    -0.230978850726E+04    0.11734E-04   -0.23305E-05  2844   0.534E-03    0.791E-03
RMM:   8    -0.230978850569E+04    0.15683E-05   -0.61445E-06  2828   0.240E-03
  61 F= -.23302748E+04 E0= -.23302748E+04  d E =-.289442E-02  mag=     4.0000
       N       E                     dE             d eps       ncg     rms          rms(c)
DAV:   1    -0.230978241286E+04    0.60944E-02   -0.33951E-01  4416   0.479E-01    0.192E-01
RMM:   2    -0.230978826179E+04   -0.58489E-02   -0.60020E-02  5848   0.100E-01    0.124E-01
RMM:   3    -0.230978873245E+04   -0.47065E-03   -0.63786E-03  4750   0.383E-02    0.854E-02
RMM:   4    -0.230978870575E+04    0.26693E-04   -0.57919E-04  2933   0.897E-03    0.551E-02
RMM:   5    -0.230978866652E+04    0.39235E-04   -0.93017E-05  2939   0.611E-03    0.290E-02
RMM:   6    -0.230978866043E+04    0.60851E-05   -0.52679E-05  2965   0.558E-03
  62 F= -.23302753E+04 E0= -.23302753E+04  d E =-.346483E-02  mag=     4.0000
       N       E                     dE             d eps       ncg     rms          rms(c)
DAV:   1    -0.230977688065E+04    0.11786E-01   -0.87184E-01  4400   0.838E-01    0.326E-01
RMM:   2    -0.230978975620E+04   -0.12876E-01   -0.13292E-01  5771   0.168E-01    0.191E-01
RMM:   3    -0.230979076062E+04   -0.10044E-02   -0.13875E-02  5270   0.657E-02    0.151E-01
[...]
RMM:   5    -0.231003024849E+04    0.19453E-04   -0.68318E-05  3030   0.629E-03    0.182E-02
RMM:   6    -0.231003024713E+04    0.13546E-05   -0.24490E-05  2875   0.533E-03
 171 F= -.23305432E+04 E0= -.23305432E+04  d E =-.974528E-03  mag=     4.0000
       N       E                     dE             d eps       ncg     rms          rms(c)
DAV:   1    -0.231001936455E+04    0.10884E-01   -0.14245E+00  4400   0.120E+00    0.328E-01
RMM:   2    -0.231003129357E+04   -0.11929E-01   -0.12088E-01  5643   0.208E-01    0.327E-01
RMM:   3    -0.231003198891E+04   -0.69533E-03   -0.12230E-02  5126   0.739E-02    0.327E-01
RMM:   4    -0.231003131045E+04    0.67845E-03   -0.12316E-03  4679   0.183E-02    0.937E-02
RMM:   5    -0.231003117387E+04    0.13658E-03   -0.47074E-04  4640   0.147E-02    0.450E-02
RMM:   6    -0.231003115989E+04    0.13984E-04   -0.16410E-04  4177   0.966E-03    0.245E-02
RMM:   7    -0.231003115560E+04    0.42879E-05   -0.19481E-05  2842   0.618E-03
 172 F= -.23305439E+04 E0= -.23305439E+04  d E =-.172127E-02  mag=     4.0000
       N       E                     dE             d eps       ncg     rms          rms(c)
DAV:   1    -0.231002875708E+04    0.24028E-02   -0.43540E-01  4400   0.649E-01    0.184E-01
RMM:   2    -0.231003271255E+04   -0.39555E-02   -0.40054E-02  5719   0.116E-01    0.185E-01
RMM:   3    -0.231003295878E+04   -0.24623E-03   -0.40886E-03  4900   0.432E-02    0.180E-01
RMM:   4    -0.231003275936E+04    0.19943E-03   -0.40033E-04  3447   0.106E-02    0.542E-02
RMM:   5    -0.231003271639E+04    0.42966E-04   -0.14034E-04  3594   0.868E-03    0.266E-02
RMM:   6    -0.231003271320E+04    0.31884E-05   -0.51284E-05  3026   0.671E-03
 173 F= -.23305454E+04 E0= -.23305454E+04  d E =-.149128E-02  mag=     4.0000
       N       E                     dE             d eps       ncg     rms          rms(c)
DAV:   1    -0.231002590424E+04    0.68122E-02   -0.82079E-01  4400   0.891E-01    0.255E-01
RMM:   2    -0.231003342294E+04   -0.75187E-02   -0.75843E-02  5706   0.159E-01    0.269E-01
RMM:   3    -0.231003385382E+04   -0.43088E-03   -0.78094E-03  5073   0.605E-02    0.252E-01
RMM:   4    -0.231003345389E+04    0.39993E-03   -0.76517E-04  4291   0.144E-02    0.738E-02
RMM:   5    -0.231003336919E+04    0.84696E-04   -0.27106E-04  4181   0.118E-02    0.341E-02
RMM:   6    -0.231003336149E+04    0.77083E-05   -0.94679E-05  3681   0.813E-03
 174 F= -.23305460E+04 E0= -.23305460E+04  d E =-.204848E-02  mag=     4.0000
       N       E                     dE             d eps       ncg     rms          rms(c)
DAV:   1    -0.231003062312E+04    0.27461E-02   -0.44057E-01  4400   0.647E-01    0.195E-01
RMM:   2    -0.231003490380E+04   -0.42807E-02   -0.43036E-02  5898   0.118E-01    0.210E-01
RMM:   3    -0.231003514896E+04   -0.24516E-03   -0.44451E-03  5048   0.464E-02    0.193E-01
RMM:   4    -0.231003491498E+04    0.23398E-03   -0.42927E-04  3560   0.111E-02    0.546E-02
RMM:   5    -0.231003487158E+04    0.43405E-04   -0.15460E-04  3816   0.901E-03    0.254E-02
RMM:   6    -0.231003486869E+04    0.28904E-05   -0.47947E-05  2991   0.668E-03
 175 F= -.23305475E+04 E0= -.23305475E+04  d E =-.147609E-02  mag=     4.0000
       N       E                     dE             d eps       ncg     rms          rms(c)
DAV:   1    -0.231003155698E+04    0.33146E-02   -0.38212E-01  4400   0.603E-01    0.182E-01
RMM:   2    -0.231003524201E+04   -0.36850E-02   -0.37098E-02  5839   0.110E-01    0.192E-01
RMM:   3    -0.231003546511E+04   -0.22310E-03   -0.38329E-03  4869   0.439E-02    0.179E-01
RMM:   4    -0.231003526354E+04    0.20157E-03   -0.36770E-04  3306   0.103E-02    0.511E-02
RMM:   5    -0.231003522450E+04    0.39041E-04   -0.13428E-04  3682   0.845E-03    0.241E-02
RMM:   6    -0.231003522097E+04    0.35301E-05   -0.42817E-05  2944   0.653E-03
 176 F= -.23305478E+04 E0= -.23305478E+04  d E =-.179837E-02  mag=     4.0000
       N       E                     dE             d eps       ncg     rms          rms(c)
DAV:   1    -0.231003245979E+04    0.27647E-02   -0.42891E-01  4400   0.652E-01    0.207E-01
RMM:   2    -0.231003646720E+04   -0.40074E-02   -0.40505E-02  5805   0.119E-01    0.214E-01
RMM:   3    -0.231003669250E+04   -0.22529E-03   -0.41625E-03  4971   0.481E-02    0.207E-01
RMM:   4    -0.231003641629E+04    0.27620E-03   -0.43002E-04  4031   0.118E-02    0.543E-02
RMM:   5    -0.231003636919E+04    0.47110E-04   -0.16935E-04  3994   0.990E-03    0.253E-02
RMM:   6    -0.231003636390E+04    0.52857E-05   -0.47702E-05  3169   0.675E-03
 177 F= -.23305489E+04 E0= -.23305489E+04  d E =-.113147E-02  mag=     4.0000
       N       E                     dE             d eps       ncg     rms          rms(c)
DAV:   1    -0.231003473904E+04    0.16301E-02   -0.16438E-01  4512   0.404E-01    0.129E-01
RMM:   2    -0.231003629409E+04   -0.15551E-02   -0.15692E-02  6005   0.759E-02    0.135E-01
RMM:   3    -0.231003637541E+04   -0.81323E-04   -0.15900E-03  4282   0.282E-02    0.129E-01
RMM:   4    -0.231003626777E+04    0.10765E-03   -0.16039E-04  2927   0.802E-03    0.341E-02
RMM:   5    -0.231003624883E+04    0.18934E-04   -0.70967E-05  3294   0.668E-03    0.155E-02
RMM:   6    -0.231003624651E+04    0.23220E-05   -0.18059E-05  2854   0.549E-03
 178 F= -.23305488E+04 E0= -.23305488E+04  d E =-.100613E-02  mag=     4.0000
       N       E                     dE             d eps       ncg     rms          rms(c)
DAV:   1    -0.231003590373E+04    0.34510E-03   -0.54205E-02  4528   0.232E-01    0.720E-02
RMM:   2    -0.231003639663E+04   -0.49290E-03   -0.50258E-03  6021   0.433E-02    0.679E-02
RMM:   3    -0.231003642949E+04   -0.32864E-04   -0.51218E-04  3387   0.164E-02    0.715E-02
RMM:   4    -0.231003639623E+04    0.33259E-04   -0.50948E-05  2846   0.504E-03    0.200E-02
RMM:   5    -0.231003639005E+04    0.61850E-05   -0.22039E-05  2866   0.397E-03
 179 F= -.23305489E+04 E0= -.23305489E+04  d E =-.115429E-02  mag=     4.0000
       N       E                     dE             d eps       ncg     rms          rms(c)
DAV:   1    -0.231003539506E+04    0.10012E-02   -0.21884E-01  4400   0.469E-01    0.158E-01
RMM:   2    -0.231003744633E+04   -0.20513E-02   -0.20122E-02  5737   0.848E-02    0.190E-01
RMM:   3    -0.231003746361E+04   -0.17281E-04   -0.20809E-03  4483   0.349E-02    0.147E-01
RMM:   4    -0.231003731765E+04    0.14596E-03   -0.22208E-04  3403   0.902E-03    0.370E-02
RMM:   5    -0.231003729277E+04    0.24881E-04   -0.78887E-05  3446   0.769E-03    0.171E-02
RMM:   6    -0.231003729074E+04    0.20344E-05   -0.23096E-05  2863   0.588E-03
 180 F= -.23305498E+04 E0= -.23305498E+04  d E =-.863525E-03  mag=     4.0000
       N       E                     dE             d eps       ncg     rms          rms(c)
DAV:   1    -0.231003662714E+04    0.66563E-03   -0.87002E-02  4448   0.296E-01    0.997E-02
RMM:   2    -0.231003744076E+04   -0.81361E-03   -0.81262E-03  5951   0.558E-02    0.108E-01
RMM:   3    -0.231003747235E+04   -0.31597E-04   -0.83006E-04  3676   0.207E-02    0.991E-02
RMM:   4    -0.231003740820E+04    0.64152E-04   -0.89804E-05  2861   0.642E-03    0.243E-02
RMM:   5    -0.231003739857E+04    0.96323E-05   -0.36490E-05  2885   0.521E-03
 181 F= -.23305499E+04 E0= -.23305499E+04  d E =-.947245E-03  mag=     4.0000
       N       E                     dE             d eps       ncg     rms          rms(c)
DAV:   1    -0.231003652359E+04    0.88461E-03   -0.19581E-01  4400   0.435E-01    0.140E-01
RMM:   2    -0.231003846697E+04   -0.19434E-02   -0.19086E-02  5956   0.810E-02    0.173E-01
RMM:   3    -0.231003848820E+04   -0.21235E-04   -0.18776E-03  4239   0.286E-02    0.129E-01
RMM:   4    -0.231003838222E+04    0.10598E-03   -0.20521E-04  2995   0.838E-03    0.357E-02
RMM:   5    -0.231003836193E+04    0.20296E-04   -0.64523E-05  3362   0.683E-03    0.174E-02
RMM:   6    -0.231003836033E+04    0.15973E-05   -0.20929E-05  2850   0.565E-03
 182 F= -.23305508E+04 E0= -.23305508E+04  d E =-.888890E-03  mag=     4.0000
       N       E                     dE             d eps       ncg     rms          rms(c)
DAV:   1    -0.231003649914E+04    0.18628E-02   -0.22870E-01  4400   0.470E-01    0.153E-01
RMM:   2    -0.231003881584E+04   -0.23167E-02   -0.22434E-02  5801   0.862E-02    0.203E-01
RMM:   3    -0.231003879041E+04    0.25431E-04   -0.22078E-03  4356   0.324E-02    0.134E-01
RMM:   4    -0.231003867675E+04    0.11366E-03   -0.24113E-04  3131   0.872E-03    0.381E-02
RMM:   5    -0.231003865252E+04    0.24233E-04   -0.69224E-05  3418   0.713E-03    0.201E-02
RMM:   6    -0.231003864975E+04    0.27658E-05   -0.25165E-05  2854   0.590E-03
 183 F= -.23305510E+04 E0= -.23305510E+04  d E =-.109852E-02  mag=     4.0000
       N       E                     dE             d eps       ncg     rms          rms(c)
DAV:   1    -0.231003675278E+04    0.18997E-02   -0.28111E-01  4400   0.523E-01    0.179E-01
RMM:   2    -0.231003974610E+04   -0.29933E-02   -0.28785E-02  5822   0.982E-02    0.246E-01
RMM:   3    -0.231003966292E+04    0.83184E-04   -0.28299E-03  4703   0.368E-02    0.153E-01
RMM:   4    -0.231003951083E+04    0.15209E-03   -0.31354E-04  3674   0.979E-03    0.416E-02
RMM:   5    -0.231003947973E+04    0.31100E-04   -0.86220E-05  3620   0.808E-03    0.232E-02
RMM:   6    -0.231003947580E+04    0.39303E-05   -0.34540E-05  2914   0.638E-03
 184 F= -.23305517E+04 E0= -.23305517E+04  d E =-.758813E-03  mag=     4.0000
       N       E                     dE             d eps       ncg     rms          rms(c)
DAV:   1    -0.231003923148E+04    0.24825E-03   -0.27367E-02  4832   0.164E-01    0.565E-02
RMM:   2    -0.231003952804E+04   -0.29656E-03   -0.28753E-03  6074   0.334E-02    0.742E-02
RMM:   3    -0.231003952382E+04    0.42275E-05   -0.28077E-04  3007   0.110E-02    0.502E-02
RMM:   4    -0.231003950823E+04    0.15588E-04   -0.31287E-05  2853   0.400E-03    0.134E-02
RMM:   5    -0.231003950514E+04    0.30892E-05   -0.10166E-05  2843   0.291E-03
 185 F= -.23305518E+04 E0= -.23305518E+04  d E =-.766680E-03  mag=     4.0000
       N       E                     dE             d eps       ncg     rms          rms(c)
DAV:   1    -0.231003712954E+04    0.23787E-02   -0.29661E-01  4400   0.527E-01    0.178E-01
RMM:   2    -0.231004072180E+04   -0.35923E-02   -0.34216E-02  5865   0.101E-01    0.271E-01
RMM:   3    -0.231004058151E+04    0.14029E-03   -0.33381E-03  4743   0.345E-02    0.142E-01
RMM:   4    -0.231004045695E+04    0.12456E-03   -0.35599E-04  3430   0.950E-03    0.447E-02
RMM:   5    -0.231004042333E+04    0.33617E-04   -0.82965E-05  3539   0.775E-03    0.284E-02
RMM:   6    -0.231004041765E+04    0.56822E-05   -0.38843E-05  2905   0.662E-03
 186 F= -.23305526E+04 E0= -.23305526E+04  d E =-.835653E-03  mag=     4.0000
       N       E                     dE             d eps       ncg     rms          rms(c)
DAV:   1    -0.231003958739E+04    0.83594E-03   -0.81303E-02  4448   0.276E-01    0.939E-02
RMM:   2    -0.231004057408E+04   -0.98669E-03   -0.94972E-03  6074   0.549E-02    0.136E-01
RMM:   3    -0.231004054941E+04    0.24674E-04   -0.93942E-04  3556   0.191E-02    0.778E-02
RMM:   4    -0.231004051409E+04    0.35312E-04   -0.98115E-05  2876   0.594E-03    0.240E-02
RMM:   5    -0.231004050453E+04    0.95664E-05   -0.26114E-05  2866   0.459E-03
 187 F= -.23305526E+04 E0= -.23305526E+04  d E =-.881077E-03  mag=     4.0000
       N       E                     dE             d eps       ncg     rms          rms(c)
DAV:   1    -0.231003766716E+04    0.28469E-02   -0.33865E-01  4400   0.568E-01    0.195E-01
RMM:   2    -0.231004180725E+04   -0.41401E-02   -0.39450E-02  5896   0.109E-01    0.291E-01
RMM:   3    -0.231004167332E+04    0.13393E-03   -0.39608E-03  4919   0.384E-02    0.160E-01
RMM:   4    -0.231004151701E+04    0.15631E-03   -0.41285E-04  3678   0.102E-02    0.471E-02
RMM:   5    -0.231004148197E+04    0.35042E-04   -0.93600E-05  3641   0.811E-03    0.286E-02
RMM:   6    -0.231004147708E+04    0.48905E-05   -0.42603E-05  2967   0.673E-03
 188 F= -.23305535E+04 E0= -.23305535E+04  d E =-.836822E-03  mag=     4.0000
       N       E                     dE             d eps       ncg     rms          rms(c)
DAV:   1    -0.231004073178E+04    0.75019E-03   -0.74010E-02  4528   0.266E-01    0.917E-02
RMM:   2    -0.231004164040E+04   -0.90861E-03   -0.87371E-03  6141   0.532E-02    0.131E-01
RMM:   3    -0.231004162342E+04    0.16976E-04   -0.88618E-04  3484   0.181E-02    0.775E-02
RMM:   4    -0.231004158888E+04    0.34540E-04   -0.91311E-05  2866   0.579E-03    0.225E-02
RMM:   5    -0.231004158125E+04    0.76312E-05   -0.23266E-05  2862   0.428E-03
 189 F= -.23305535E+04 E0= -.23305535E+04  d E =-.876007E-03  mag=     4.0000
       N       E                     dE             d eps       ncg     rms          rms(c)
DAV:   1    -0.231003836166E+04    0.32272E-02   -0.39013E-01  4400   0.619E-01    0.204E-01
RMM:   2    -0.231004279787E+04   -0.44362E-02   -0.42725E-02  5859   0.117E-01    0.291E-01
RMM:   3    -0.231004270178E+04    0.96097E-04   -0.42989E-03  5002   0.416E-02    0.172E-01
RMM:   4    -0.231004251807E+04    0.18371E-03   -0.46095E-04  3991   0.110E-02    0.507E-02
RMM:   5    -0.231004247259E+04    0.45476E-04   -0.11304E-04  3870   0.895E-03    0.280E-02
RMM:   6    -0.231004246662E+04    0.59711E-05   -0.45628E-05  3096   0.688E-03
 190 F= -.23305542E+04 E0= -.23305542E+04  d E =-.722535E-03  mag=     4.0000
       N       E                     dE             d eps       ncg     rms          rms(c)
DAV:   1    -0.231004222550E+04    0.24709E-03   -0.22518E-02  4896   0.149E-01    0.499E-02
RMM:   2    -0.231004248681E+04   -0.26131E-03   -0.25483E-03  6053   0.313E-02    0.679E-02
RMM:   3    -0.231004248492E+04    0.18985E-05   -0.25652E-04  2944   0.103E-02    0.440E-02
RMM:   4    -0.231004247387E+04    0.11046E-04   -0.27283E-05  2856   0.375E-03    0.127E-02
RMM:   5    -0.231004247129E+04    0.25763E-05   -0.83026E-06  2841   0.262E-03
 191 F= -.23305542E+04 E0= -.23305542E+04  d E =-.687201E-03  mag=     4.0000
       N       E                     dE             d eps       ncg     rms          rms(c)
DAV:   1    -0.231003923233E+04    0.32415E-02   -0.40943E-01  4400   0.640E-01    0.204E-01
RMM:   2    -0.231004350082E+04   -0.42685E-02   -0.41394E-02  5791   0.117E-01    0.280E-01
RMM:   3    -0.231004343861E+04    0.62208E-04   -0.41316E-03  4960   0.399E-02    0.179E-01
RMM:   4    -0.231004323723E+04    0.20138E-03   -0.44616E-04  3991   0.108E-02    0.494E-02
RMM:   5    -0.231004319376E+04    0.43466E-04   -0.11890E-04  3821   0.880E-03    0.265E-02
RMM:   6    -0.231004318825E+04    0.55077E-05   -0.49035E-05  3190   0.679E-03
 192 F= -.23305548E+04 E0= -.23305548E+04  d E =-.562302E-03  mag=     4.0000
       N       E                     dE             d eps       ncg     rms          rms(c)
DAV:   1    -0.231004263262E+04    0.56114E-03   -0.54177E-02  4544   0.233E-01    0.753E-02
RMM:   2    -0.231004320560E+04   -0.57298E-03   -0.55847E-03  6107   0.456E-02    0.100E-01
RMM:   3    -0.231004320251E+04    0.30960E-05   -0.55711E-04  3322   0.152E-02    0.679E-02
RMM:   4    -0.231004317509E+04    0.27415E-04   -0.59876E-05  2862   0.505E-03    0.184E-02
RMM:   5    -0.231004316943E+04    0.56647E-05   -0.17952E-05  2860   0.373E-03
 193 F= -.23305547E+04 E0= -.23305547E+04  d E =-.486024E-03  mag=     4.0000
       N       E                     dE             d eps       ncg     rms          rms(c)
DAV:   1    -0.231004291801E+04    0.25708E-03   -0.29212E-02  4448   0.171E-01    0.540E-02
RMM:   2    -0.231004322313E+04   -0.30512E-03   -0.29218E-03  6029   0.323E-02    0.775E-02
RMM:   3    -0.231004321433E+04    0.87999E-05   -0.29335E-04  3007   0.116E-02    0.450E-02
RMM:   4    -0.231004320118E+04    0.13151E-04   -0.31165E-05  2855   0.376E-03    0.129E-02
RMM:   5    -0.231004319795E+04    0.32308E-05   -0.89736E-06  2841   0.278E-03
 194 F= -.23305548E+04 E0= -.23305548E+04  d E =-.556240E-03  mag=     4.0000
       N       E                     dE             d eps       ncg     rms          rms(c)
DAV:   1    -0.231004148335E+04    0.17178E-02   -0.28152E-01  4400   0.532E-01    0.180E-01
RMM:   2    -0.231004412254E+04   -0.26392E-02   -0.26107E-02  5733   0.978E-02    0.222E-01
RMM:   3    -0.231004411324E+04    0.92946E-05   -0.25890E-03  4628   0.366E-02    0.169E-01
RMM:   4    -0.231004392447E+04    0.18878E-03   -0.30776E-04  3996   0.102E-02    0.425E-02
RMM:   5    -0.231004388758E+04    0.36882E-04   -0.10189E-04  3833   0.890E-03    0.197E-02
RMM:   6    -0.231004388335E+04    0.42378E-05   -0.33912E-05  3022   0.616E-03
 195 F= -.23305553E+04 E0= -.23305553E+04  d E =-.555082E-03  mag=     4.0000
       N       E                     dE             d eps       ncg     rms          rms(c)
DAV:   1    -0.231004386183E+04    0.25758E-04   -0.26862E-03  5264   0.520E-02    0.170E-02
RMM:   2    -0.231004388465E+04   -0.22823E-04   -0.23419E-04  3990   0.114E-02    0.188E-02
RMM:   3    -0.231004388567E+04   -0.10261E-05   -0.26806E-05  2786   0.572E-03
 196 F= -.23305553E+04 E0= -.23305553E+04  d E =-.570046E-03  mag=     4.0000
       N       E                     dE             d eps       ncg     rms          rms(c)
DAV:   1    -0.231004349094E+04    0.39371E-03   -0.13039E-01  4400   0.370E-01    0.123E-01
RMM:   2    -0.231004448506E+04   -0.99412E-03   -0.10213E-02  5683   0.660E-02    0.120E-01
RMM:   3    -0.231004454368E+04   -0.58619E-04   -0.99268E-04  3897   0.236E-02    0.134E-01
RMM:   4    -0.231004442567E+04    0.11801E-03   -0.12863E-04  2988   0.775E-03    0.284E-02
RMM:   5    -0.231004441181E+04    0.13857E-04   -0.57470E-05  3259   0.664E-03    0.120E-02
RMM:   6    -0.231004441050E+04    0.13078E-05   -0.14694E-05  2846   0.515E-03
 197 F= -.23305557E+04 E0= -.23305557E+04  d E =-.397635E-03  mag=     4.0000
       N       E                     dE             d eps       ncg     rms          rms(c)
DAV:   1    -0.231004434430E+04    0.67507E-04   -0.10118E-02  4928   0.104E-01    0.349E-02
RMM:   2    -0.231004442497E+04   -0.80668E-04   -0.82746E-04  5593   0.205E-02    0.332E-02
RMM:   3    -0.231004443064E+04   -0.56649E-05   -0.83534E-05  2849   0.813E-03
 198 F= -.23305557E+04 E0= -.23305557E+04  d E =-.381856E-03  mag=     4.0000
       N       E                     dE             d eps       ncg     rms          rms(c)
DAV:   1    -0.231004438789E+04    0.37087E-04   -0.43931E-03  4496   0.683E-02    0.218E-02
RMM:   2    -0.231004442091E+04   -0.33029E-04   -0.33913E-04  5102   0.131E-02    0.201E-02
RMM:   3    -0.231004442441E+04   -0.34989E-05   -0.36316E-05  2798   0.536E-03
 199 F= -.23305557E+04 E0= -.23305557E+04  d E =-.398915E-03  mag=     4.0000
       N       E                     dE             d eps       ncg     rms          rms(c)
DAV:   1    -0.231004412986E+04    0.29105E-03   -0.11258E-01  4400   0.350E-01    0.106E-01
RMM:   2    -0.231004486441E+04   -0.73454E-03   -0.78671E-03  5623   0.597E-02    0.734E-02
RMM:   3    -0.231004494104E+04   -0.76637E-04   -0.76916E-04  3729   0.211E-02    0.116E-01
RMM:   4    -0.231004485611E+04    0.84930E-04   -0.95746E-05  2877   0.676E-03    0.283E-02
RMM:   5    -0.231004484353E+04    0.12587E-04   -0.49511E-05  3086   0.601E-03    0.110E-02
RMM:   6    -0.231004484221E+04    0.13120E-05   -0.12820E-05  2852   0.490E-03
 200 F= -.23305560E+04 E0= -.23305560E+04  d E =-.297174E-03  mag=     4.0000
       N       E                     dE             d eps       ncg     rms          rms(c)
DAV:   1    -0.231004484001E+04    0.35180E-05   -0.20283E-03  5352   0.475E-02    0.148E-02
RMM:   2    -0.231004485409E+04   -0.14080E-04   -0.15224E-04  3600   0.976E-03    0.946E-03
RMM:   3    -0.231004485625E+04   -0.21601E-05   -0.18777E-05  2675   0.561E-03
 201 F= -.23305560E+04 E0= -.23305560E+04  d E =-.294677E-03  mag=     4.0000
