       N       E                     dE             d eps       ncg     rms          rms(c)
DAV:   1     0.124115384862E+05    0.12412E+05   -0.83913E+05  4640   0.142E+03
DAV:   2    -0.126066621296E+04   -0.13672E+05   -0.13131E+05  5040   0.321E+02
DAV:   3    -0.249988929850E+04   -0.12392E+04   -0.12287E+04  5440   0.104E+02
DAV:   4    -0.252802858620E+04   -0.28139E+02   -0.27990E+02  5760   0.194E+01
DAV:   5    -0.252879015500E+04   -0.76157E+00   -0.76013E+00  5600   0.274E+00    0.171E+02
RMM:   6    -0.149378334197E+04    0.10350E+04   -0.19214E+03  4504   0.378E+01    0.744E+01
RMM:   7    -0.169055948976E+04   -0.19678E+03   -0.31973E+02  5173   0.150E+01    0.630E+01
RMM:   8    -0.169501260235E+04   -0.44531E+01   -0.96519E+01  5165   0.860E+00    0.421E+01
RMM:   9    -0.179417432344E+04   -0.99162E+02   -0.47026E+01  4830   0.710E+00    0.349E+01
RMM:  10    -0.190356827623E+04   -0.10939E+03   -0.48452E+01  5283   0.652E+00    0.296E+01
RMM:  11    -0.197667933676E+04   -0.73111E+02   -0.29757E+01  5434   0.450E+00    0.218E+01
RMM:  12    -0.206535637762E+04   -0.88677E+02   -0.35594E+01  4919   0.479E+00    0.145E+01
RMM:  13    -0.217102023146E+04   -0.10566E+03   -0.65438E+01  4699   0.577E+00    0.118E+01
RMM:  14    -0.225430965242E+04   -0.83289E+02   -0.62555E+01  4704   0.586E+00    0.758E+00
RMM:  15    -0.230265099087E+04   -0.48341E+02   -0.43383E+01  4738   0.490E+00    0.471E+00
RMM:  16    -0.231646236790E+04   -0.13811E+02   -0.14788E+01  4961   0.296E+00    0.336E+00
RMM:  17    -0.232081647195E+04   -0.43541E+01   -0.44279E+00  5065   0.129E+00    0.171E+00
RMM:  18    -0.232290710089E+04   -0.20906E+01   -0.13070E+00  4797   0.766E-01    0.118E+00
RMM:  19    -0.232363769001E+04   -0.73059E+00   -0.56782E-01  4806   0.459E-01    0.594E-01
RMM:  20    -0.232388048274E+04   -0.24279E+00   -0.21917E-01  4722   0.299E-01    0.466E-01
RMM:  21    -0.232392451959E+04   -0.44037E-01   -0.53106E-02  4810   0.170E-01    0.197E-01
RMM:  22    -0.232394874553E+04   -0.24226E-01   -0.16807E-02  4626   0.926E-02    0.169E-01
RMM:  23    -0.232396378687E+04   -0.15041E-01   -0.65500E-03  4546   0.680E-02    0.841E-02
RMM:  24    -0.232397455800E+04   -0.10771E-01   -0.42942E-03  4508   0.524E-02    0.545E-02
RMM:  25    -0.232397845464E+04   -0.38966E-02   -0.15856E-03  4643   0.381E-02    0.354E-02
RMM:  26    -0.232398221437E+04   -0.37597E-02   -0.13287E-03  4456   0.271E-02    0.239E-02
RMM:  27    -0.232398363633E+04   -0.14220E-02   -0.53114E-04  4099   0.221E-02    0.129E-02
RMM:  28    -0.232398416859E+04   -0.53226E-03   -0.21526E-04  4016   0.115E-02    0.826E-03
RMM:  29    -0.232398442833E+04   -0.25974E-03   -0.89539E-05  3695   0.978E-03    0.483E-03
RMM:  30    -0.232398451425E+04   -0.85925E-04   -0.33753E-05  3376   0.537E-03    0.282E-03
RMM:  31    -0.232398456890E+04   -0.54648E-04   -0.15025E-05  3044   0.404E-03    0.189E-03
RMM:  32    -0.232398458623E+04   -0.17325E-04   -0.68061E-06  2878   0.286E-03    0.101E-03
RMM:  33    -0.232398459166E+04   -0.54341E-05   -0.34371E-06  2481   0.213E-03
   1 F= -.23449246E+04 E0= -.23449246E+04  d E =-.653928E-13  mag=     6.0000
       N       E                     dE             d eps       ncg     rms          rms(c)
DAV:   1    -0.232397807001E+04    0.65162E-02   -0.21696E+00  4560   0.616E-01    0.366E-01
RMM:   2    -0.232397654838E+04    0.15216E-02   -0.16250E-02  3864   0.475E-02    0.201E-01
RMM:   3    -0.232397605034E+04    0.49804E-03   -0.30734E-03  4463   0.251E-02    0.207E-01
RMM:   4    -0.232397580594E+04    0.24440E-03   -0.12587E-03  4326   0.134E-02    0.124E-01
RMM:   5    -0.232397568336E+04    0.12258E-03   -0.18465E-04  3030   0.673E-03    0.495E-02
RMM:   6    -0.232397567252E+04    0.10839E-04   -0.66217E-05  2853   0.421E-03    0.339E-02
RMM:   7    -0.232397566145E+04    0.11071E-04   -0.17908E-05  2750   0.289E-03    0.109E-02
RMM:   8    -0.232397566106E+04    0.39586E-06   -0.54461E-06  2700   0.183E-03
   2 F= -.23449158E+04 E0= -.23449158E+04  d E =-.322956E-15  mag=     6.0000
       N       E                     dE             d eps       ncg     rms          rms(c)
DAV:   1    -0.232395879492E+04    0.16867E-01   -0.85516E+00  4480   0.122E+00    0.711E-01
RMM:   2    -0.232395315097E+04    0.56439E-02   -0.58475E-02  4075   0.954E-02    0.400E-01
RMM:   3    -0.232395122468E+04    0.19263E-02   -0.11394E-02  4594   0.593E-02    0.430E-01
RMM:   4    -0.232395019413E+04    0.10306E-02   -0.60427E-03  4833   0.283E-02    0.245E-01
RMM:   5    -0.232394969235E+04    0.50178E-03   -0.81126E-04  3487   0.170E-02    0.949E-02
RMM:   6    -0.232394965923E+04    0.33129E-04   -0.25203E-04  3394   0.737E-03    0.687E-02
RMM:   7    -0.232394961467E+04    0.44557E-04   -0.61403E-05  3018   0.485E-03    0.223E-02
RMM:   8    -0.232394961402E+04    0.65133E-06   -0.20699E-05  2965   0.313E-03
   3 F= -.23448897E+04 E0= -.23448897E+04  d E =-.137094E-10  mag=     6.0000
       N       E                     dE             d eps       ncg     rms          rms(c)
DAV:   1    -0.232397617290E+04   -0.26558E-01   -0.40620E+00  4480   0.775E-01    0.438E-01
RMM:   2    -0.232397538751E+04    0.78539E-03   -0.20775E-02  3973   0.563E-02    0.293E-01
RMM:   3    -0.232397557786E+04   -0.19035E-03   -0.45026E-03  5043   0.266E-02    0.400E-01
RMM:   4    -0.232397409000E+04    0.14879E-02   -0.27513E-03  4614   0.196E-02    0.887E-02
RMM:   5    -0.232397414052E+04   -0.50521E-04   -0.42254E-04  3216   0.105E-02    0.938E-02
RMM:   6    -0.232397406070E+04    0.79824E-04   -0.98798E-05  2958   0.491E-03    0.289E-02
RMM:   7    -0.232397405096E+04    0.97403E-05   -0.34136E-05  2928   0.305E-03
   4 F= -.23449148E+04 E0= -.23449148E+04  d E =-.815441E-13  mag=     6.0000
       N       E                     dE             d eps       ncg     rms          rms(c)
DAV:   1    -0.232396866525E+04    0.53954E-02   -0.82854E+00  4480   0.113E+00    0.640E-01
RMM:   2    -0.232396570509E+04    0.29602E-02   -0.35279E-02  3994   0.706E-02    0.407E-01
RMM:   3    -0.232396702891E+04   -0.13238E-02   -0.10493E-02  5575   0.386E-02    0.629E-01
RMM:   4    -0.232396322331E+04    0.38056E-02   -0.47311E-03  4860   0.256E-02    0.929E-02
RMM:   5    -0.232396328964E+04   -0.66330E-04   -0.94063E-04  3629   0.936E-03    0.559E-02
RMM:   6    -0.232396328363E+04    0.60089E-05   -0.12712E-04  2963   0.553E-03    0.660E-02
RMM:   7    -0.232396324253E+04    0.41100E-04   -0.49936E-05  2912   0.365E-03    0.180E-02
RMM:   8    -0.232396323772E+04    0.48105E-05   -0.21240E-05  2934   0.264E-03
   5 F= -.23449027E+04 E0= -.23449027E+04  d E =-.213206E-14  mag=     6.0000
       N       E                     dE             d eps       ncg     rms          rms(c)
DAV:   1    -0.232398505055E+04   -0.21808E-01   -0.39517E+00  4480   0.761E-01    0.410E-01
RMM:   2    -0.232398470697E+04    0.34359E-03   -0.18122E-02  4133   0.501E-02    0.308E-01
RMM:   3    -0.232398472144E+04   -0.14473E-04   -0.45197E-03  5063   0.275E-02    0.392E-01
RMM:   4    -0.232398342163E+04    0.12998E-02   -0.17885E-03  4143   0.163E-02    0.934E-02
RMM:   5    -0.232398348255E+04   -0.60926E-04   -0.52508E-04  3306   0.103E-02    0.107E-01
RMM:   6    -0.232398338785E+04    0.94704E-04   -0.14320E-04  2858   0.526E-03    0.303E-02
RMM:   7    -0.232398337991E+04    0.79381E-05   -0.23151E-05  2757   0.284E-03
   6 F= -.23449234E+04 E0= -.23449234E+04  d E =-.193108E-13  mag=     6.0000
       N       E                     dE             d eps       ncg     rms          rms(c)
DAV:   1    -0.232397750362E+04    0.58842E-02   -0.77263E+00  4480   0.107E+00    0.504E-01
RMM:   2    -0.232397710362E+04    0.40000E-03   -0.25733E-02  4020   0.599E-02    0.362E-01
RMM:   3    -0.232397757475E+04   -0.47114E-03   -0.67204E-03  5060   0.334E-02    0.495E-01
RMM:   4    -0.232397553354E+04    0.20412E-02   -0.27307E-03  4323   0.207E-02    0.979E-02
RMM:   5    -0.232397567324E+04   -0.13970E-03   -0.71473E-04  3462   0.114E-02    0.135E-01
RMM:   6    -0.232397551612E+04    0.15712E-03   -0.17168E-04  2914   0.589E-03    0.323E-02
RMM:   7    -0.232397550686E+04    0.92577E-05   -0.47525E-05  2848   0.354E-03
   7 F= -.23449154E+04 E0= -.23449154E+04  d E =-.505782E-14  mag=     6.0000
       N       E                     dE             d eps       ncg     rms          rms(c)
DAV:   1    -0.232395695901E+04    0.18557E-01   -0.41776E+00  4480   0.854E-01    0.459E-01
RMM:   2    -0.232395422317E+04    0.27358E-02   -0.22613E-02  4096   0.621E-02    0.321E-01
RMM:   3    -0.232395455035E+04   -0.32717E-03   -0.61204E-03  4930   0.333E-02    0.439E-01
RMM:   4    -0.232395268188E+04    0.18685E-02   -0.25477E-03  4378   0.198E-02    0.775E-02
RMM:   5    -0.232395266924E+04    0.12638E-04   -0.54259E-04  3377   0.100E-02    0.522E-02
RMM:   6    -0.232395266896E+04    0.27377E-06   -0.99703E-05  2941   0.524E-03
   8 F= -.23448934E+04 E0= -.23448934E+04  d E =-.937633E-13  mag=     6.0000
       N       E                     dE             d eps       ncg     rms          rms(c)
DAV:   1    -0.232397641775E+04   -0.23749E-01   -0.88675E+00  4480   0.127E+00    0.759E-01
RMM:   2    -0.232396509598E+04    0.11322E-01   -0.60419E-02  4116   0.911E-02    0.414E-01
RMM:   3    -0.232396565902E+04   -0.56304E-03   -0.15672E-02  5368   0.507E-02    0.626E-01
RMM:   4    -0.232396167105E+04    0.39880E-02   -0.50317E-03  5106   0.289E-02    0.115E-01
RMM:   5    -0.232396165733E+04    0.13724E-04   -0.10448E-03  3607   0.112E-02    0.118E-01
RMM:   6    -0.232396156763E+04    0.89698E-04   -0.22721E-04  3040   0.751E-03    0.537E-02
RMM:   7    -0.232396154845E+04    0.19175E-04   -0.38998E-05  2884   0.402E-03    0.228E-02
RMM:   8    -0.232396154454E+04    0.39103E-05   -0.12985E-05  2810   0.242E-03
   9 F= -.23449008E+04 E0= -.23449008E+04  d E =-.443802E-15  mag=     6.0000
       N       E                     dE             d eps       ncg     rms          rms(c)
DAV:   1    -0.232394432121E+04    0.17227E-01   -0.43474E+00  4320   0.846E-01    0.474E-01
RMM:   2    -0.232394151941E+04    0.28018E-02   -0.19626E-02  3861   0.511E-02    0.273E-01
RMM:   3    -0.232394183857E+04   -0.31915E-03   -0.67644E-03  5025   0.307E-02    0.395E-01
RMM:   4    -0.232394025392E+04    0.15847E-02   -0.21081E-03  4571   0.185E-02    0.599E-02
RMM:   5    -0.232394028369E+04   -0.29771E-04   -0.32750E-04  3158   0.673E-03    0.779E-02
RMM:   6    -0.232394023332E+04    0.50367E-04   -0.78312E-05  2730   0.429E-03    0.251E-02
RMM:   7    -0.232394022603E+04    0.72879E-05   -0.20817E-05  2719   0.260E-03
  10 F= -.23448801E+04 E0= -.23448801E+04  d E =-.422687E-14  mag=     6.0000
       N       E                     dE             d eps       ncg     rms          rms(c)
DAV:   1    -0.232398689139E+04   -0.46658E-01   -0.86487E+00  4480   0.113E+00    0.664E-01
RMM:   2    -0.232398123312E+04    0.56583E-02   -0.33179E-02  3935   0.705E-02    0.371E-01
RMM:   3    -0.232398018739E+04    0.10457E-02   -0.13195E-02  4964   0.395E-02    0.327E-01
RMM:   4    -0.232397913575E+04    0.10516E-02   -0.22919E-03  4462   0.207E-02    0.942E-02
RMM:   5    -0.232397905955E+04    0.76204E-04   -0.18608E-04  3211   0.663E-03    0.445E-02
RMM:   6    -0.232397905186E+04    0.76936E-05   -0.62772E-05  2724   0.425E-03
  11 F= -.23449192E+04 E0= -.23449192E+04  d E =-.102092E-13  mag=     6.0000
       N       E                     dE             d eps       ncg     rms          rms(c)
DAV:   1    -0.232397837898E+04    0.68057E-03   -0.42060E+00  4320   0.822E-01    0.420E-01
RMM:   2    -0.232397594839E+04    0.24306E-02   -0.13200E-02  3829   0.438E-02    0.232E-01
RMM:   3    -0.232397544050E+04    0.50789E-03   -0.56017E-03  4650   0.263E-02    0.216E-01
RMM:   4    -0.232397495610E+04    0.48440E-03   -0.89945E-04  3953   0.139E-02    0.553E-02
RMM:   5    -0.232397493873E+04    0.17367E-04   -0.10349E-04  3064   0.639E-03    0.390E-02
RMM:   6    -0.232397493002E+04    0.87079E-05   -0.36479E-05  2655   0.359E-03
  12 F= -.23449150E+04 E0= -.23449150E+04  d E =-.225734E-13  mag=     6.0000
       N       E                     dE             d eps       ncg     rms          rms(c)
DAV:   1    -0.232399211986E+04   -0.17181E-01   -0.81432E+00  4480   0.107E+00    0.481E-01
RMM:   2    -0.232398922184E+04    0.28980E-02   -0.21041E-02  3906   0.500E-02    0.269E-01
RMM:   3    -0.232398882818E+04    0.39366E-03   -0.70529E-03  4995   0.340E-02    0.363E-01
RMM:   4    -0.232398755766E+04    0.12705E-02   -0.16179E-03  4250   0.163E-02    0.622E-02
RMM:   5    -0.232398760004E+04   -0.42380E-04   -0.22886E-04  3220   0.773E-03    0.654E-02
RMM:   6    -0.232398757236E+04    0.27674E-04   -0.65043E-05  2808   0.440E-03    0.326E-02
RMM:   7    -0.232398757260E+04   -0.23254E-06   -0.33559E-05  2920   0.385E-03
  13 F= -.23449275E+04 E0= -.23449275E+04  d E =-.235233E-14  mag=     6.0000
       N       E                     dE             d eps       ncg     rms          rms(c)
DAV:   1    -0.232398639712E+04    0.11752E-02   -0.23626E+00  4480   0.586E-01    0.290E-01
RMM:   2    -0.232398569394E+04    0.70318E-03   -0.68240E-03  3723   0.297E-02    0.167E-01
RMM:   3    -0.232398570009E+04   -0.61563E-05   -0.23171E-03  4564   0.189E-02    0.209E-01
RMM:   4    -0.232398527178E+04    0.42832E-03   -0.54855E-04  3454   0.104E-02    0.351E-02
RMM:   5    -0.232398528106E+04   -0.92796E-05   -0.86737E-05  2996   0.603E-03
  14 F= -.23449252E+04 E0= -.23449252E+04  d E =-.584690E-14  mag=     6.0000
       N       E                     dE             d eps       ncg     rms          rms(c)
DAV:   1    -0.232397889530E+04    0.63765E-02   -0.12188E+00  4480   0.369E-01    0.322E-01
RMM:   2    -0.232397868456E+04    0.21074E-03   -0.46858E-03  3660   0.236E-02    0.191E-01
RMM:   3    -0.232397896988E+04   -0.28533E-03   -0.14896E-03  4235   0.140E-02    0.226E-01
RMM:   4    -0.232397859622E+04    0.37366E-03   -0.65036E-04  3229   0.104E-02    0.548E-02
RMM:   5    -0.232397857987E+04    0.16351E-04   -0.56804E-05  2824   0.427E-03    0.270E-02
RMM:   6    -0.232397857300E+04    0.68745E-05   -0.14549E-05  2462   0.253E-03
  15 F= -.23449186E+04 E0= -.23449186E+04  d E =-.516939E-14  mag=     6.0000
       N       E                     dE             d eps       ncg     rms          rms(c)
DAV:   1    -0.232399680899E+04   -0.18229E-01   -0.62357E-01  5120   0.273E-01    0.318E-01
RMM:   2    -0.232399562760E+04    0.11814E-02   -0.53425E-03  3702   0.241E-02    0.169E-01
RMM:   3    -0.232399548374E+04    0.14387E-03   -0.54918E-04  3381   0.120E-02    0.101E-01
RMM:   4    -0.232399565037E+04   -0.16663E-03   -0.60287E-04  3587   0.982E-03    0.153E-01
RMM:   5    -0.232399543001E+04    0.22036E-03   -0.15426E-04  3047   0.650E-03    0.225E-02
RMM:   6    -0.232399543047E+04   -0.46300E-06   -0.31022E-05  2578   0.304E-03
  16 F= -.23449351E+04 E0= -.23449351E+04  d E =-.533653E-14  mag=     6.0000
       N       E                     dE             d eps       ncg     rms          rms(c)
DAV:   1    -0.232395658971E+04    0.38840E-01   -0.12602E+00  5120   0.398E-01    0.614E-01
RMM:   2    -0.232394997665E+04    0.66131E-02   -0.24320E-02  3960   0.489E-02    0.300E-01
RMM:   3    -0.232394925159E+04    0.72506E-03   -0.23482E-03  4030   0.258E-02    0.214E-01
RMM:   4    -0.232394967585E+04   -0.42426E-03   -0.21194E-03  4172   0.164E-02    0.303E-01
RMM:   5    -0.232394887651E+04    0.79934E-03   -0.52293E-04  3626   0.107E-02    0.373E-02
RMM:   6    -0.232394888054E+04   -0.40283E-05   -0.99673E-05  2899   0.535E-03
  17 F= -.23448892E+04 E0= -.23448892E+04  d E =-.734353E-14  mag=     6.0000
       N       E                     dE             d eps       ncg     rms          rms(c)
DAV:   1    -0.232399931035E+04   -0.50434E-01   -0.60954E-01  4960   0.271E-01    0.349E-01
RMM:   2    -0.232399759083E+04    0.17195E-02   -0.74689E-03  3862   0.273E-02    0.181E-01
RMM:   3    -0.232399735659E+04    0.23424E-03   -0.83754E-04  3991   0.133E-02    0.126E-01
RMM:   4    -0.232399743872E+04   -0.82127E-04   -0.68025E-04  3473   0.994E-03    0.152E-01
RMM:   5    -0.232399724351E+04    0.19521E-03   -0.17839E-04  3166   0.677E-03    0.249E-02
RMM:   6    -0.232399724826E+04   -0.47470E-05   -0.37807E-05  2620   0.341E-03
  18 F= -.23449376E+04 E0= -.23449376E+04  d E =-.292708E-14  mag=     6.0000
       N       E                     dE             d eps       ncg     rms          rms(c)
DAV:   1    -0.232396985471E+04    0.27389E-01   -0.11703E+00  4480   0.372E-01    0.328E-01
RMM:   2    -0.232396978574E+04    0.68970E-04   -0.37036E-03  3606   0.208E-02    0.193E-01
RMM:   3    -0.232396977237E+04    0.13373E-04   -0.10001E-03  3817   0.113E-02    0.919E-02
RMM:   4    -0.232396972597E+04    0.46402E-04   -0.20483E-04  2927   0.756E-03    0.564E-02
RMM:   5    -0.232396969954E+04    0.26431E-04   -0.29658E-05  2688   0.324E-03    0.136E-02
RMM:   6    -0.232396969977E+04   -0.23152E-06   -0.92955E-06  2491   0.190E-03
  19 F= -.23449093E+04 E0= -.23449093E+04  d E =-.776179E-14  mag=     6.0000
       N       E                     dE             d eps       ncg     rms          rms(c)
DAV:   1    -0.232396830324E+04    0.13963E-02   -0.59412E-01  4480   0.263E-01    0.226E-01
RMM:   2    -0.232396834297E+04   -0.39731E-04   -0.25585E-03  3680   0.179E-02    0.135E-01
RMM:   3    -0.232396852820E+04   -0.18523E-03   -0.65621E-04  3815   0.102E-02    0.171E-01
RMM:   4    -0.232396828440E+04    0.24380E-03   -0.29772E-04  2920   0.699E-03    0.328E-02
RMM:   5    -0.232396828724E+04   -0.28412E-05   -0.29252E-05  2669   0.287E-03
  20 F= -.23449080E+04 E0= -.23449080E+04  d E =-.844747E-14  mag=     6.0000
       N       E                     dE             d eps       ncg     rms          rms(c)
DAV:   1    -0.232399694423E+04   -0.28660E-01   -0.11920E+00  4480   0.358E-01    0.313E-01
RMM:   2    -0.232399694437E+04   -0.13823E-06   -0.43719E-03  3844   0.228E-02    0.199E-01
RMM:   3    -0.232399765768E+04   -0.71331E-03   -0.17745E-03  4295   0.157E-02    0.331E-01
RMM:   4    -0.232399675982E+04    0.89786E-03   -0.78311E-04  3426   0.111E-02    0.420E-02
RMM:   5    -0.232399677501E+04   -0.15189E-04   -0.75565E-05  2896   0.445E-03    0.150E-02
RMM:   6    -0.232399677362E+04    0.13841E-05   -0.10492E-05  2537   0.231E-03
  21 F= -.23449370E+04 E0= -.23449370E+04  d E =-.369253E-14  mag=     6.0000
       N       E                     dE             d eps       ncg     rms          rms(c)
DAV:   1    -0.232396039301E+04    0.36382E-01   -0.59245E-01  4720   0.269E-01    0.306E-01
RMM:   2    -0.232395951363E+04    0.87937E-03   -0.47830E-03  3795   0.235E-02    0.186E-01
RMM:   3    -0.232395990776E+04   -0.39413E-03   -0.17993E-03  4572   0.155E-02    0.275E-01
RMM:   4    -0.232395920230E+04    0.70546E-03   -0.78171E-04  3420   0.114E-02    0.460E-02
RMM:   5    -0.232395919983E+04    0.24664E-05   -0.13134E-04  2948   0.453E-03    0.305E-02
RMM:   6    -0.232395919440E+04    0.54364E-05   -0.23003E-05  2515   0.297E-03
  22 F= -.23448998E+04 E0= -.23448998E+04  d E =-.911504E-14  mag=     6.0000
       N       E                     dE             d eps       ncg     rms          rms(c)
DAV:   1    -0.232399514566E+04   -0.35946E-01   -0.12319E+00  4960   0.387E-01    0.591E-01
RMM:   2    -0.232398948839E+04    0.56573E-02   -0.18077E-02  4125   0.439E-02    0.315E-01
RMM:   3    -0.232398994220E+04   -0.45381E-03   -0.49149E-03  4505   0.292E-02    0.419E-01
RMM:   4    -0.232398851124E+04    0.14310E-02   -0.23821E-03  4149   0.187E-02    0.125E-01
RMM:   5    -0.232398847172E+04    0.39514E-04   -0.43632E-04  3308   0.833E-03    0.105E-01
RMM:   6    -0.232398838463E+04    0.87086E-04   -0.15493E-04  2863   0.593E-03    0.356E-02
RMM:   7    -0.232398837372E+04    0.10915E-04   -0.19805E-05  2608   0.281E-03    0.125E-02
RMM:   8    -0.232398837257E+04    0.11455E-05   -0.67524E-06  2492   0.169E-03
  23 F= -.23449278E+04 E0= -.23449278E+04  d E =-.311633E-14  mag=     6.0000
       N       E                     dE             d eps       ncg     rms          rms(c)
DAV:   1    -0.232398620657E+04    0.21672E-02   -0.59720E-01  4720   0.264E-01    0.310E-01
RMM:   2    -0.232398525576E+04    0.95081E-03   -0.45296E-03  3835   0.214E-02    0.170E-01
RMM:   3    -0.232398524464E+04    0.11128E-04   -0.90540E-04  3651   0.122E-02    0.166E-01
RMM:   4    -0.232398508774E+04    0.15689E-03   -0.47938E-04  3108   0.854E-03    0.860E-02
RMM:   5    -0.232398504634E+04    0.41406E-04   -0.82699E-05  2832   0.469E-03    0.364E-02
RMM:   6    -0.232398503834E+04    0.79913E-05   -0.24891E-05  2480   0.298E-03
  24 F= -.23449252E+04 E0= -.23449252E+04  d E =-.476555E-14  mag=     6.0000
       N       E                     dE             d eps       ncg     rms          rms(c)
DAV:   1    -0.232398127227E+04    0.37741E-02   -0.11751E+00  4480   0.368E-01    0.349E-01
RMM:   2    -0.232398094389E+04    0.32838E-03   -0.50874E-03  3836   0.235E-02    0.216E-01
RMM:   3    -0.232398167557E+04   -0.73168E-03   -0.23322E-03  4682   0.173E-02    0.339E-01
RMM:   4    -0.232398066539E+04    0.10102E-02   -0.10258E-03  3700   0.128E-02    0.414E-02
RMM:   5    -0.232398069905E+04   -0.33657E-04   -0.17397E-04  2992   0.525E-03    0.636E-02
RMM:   6    -0.232398066365E+04    0.35396E-04   -0.47097E-05  2606   0.349E-03    0.162E-02
RMM:   7    -0.232398066225E+04    0.14057E-05   -0.67423E-06  2402   0.165E-03
  25 F= -.23449205E+04 E0= -.23449205E+04  d E =-.525827E-14  mag=     6.0000
       N       E                     dE             d eps       ncg     rms          rms(c)
DAV:   1    -0.232397923372E+04    0.14299E-02   -0.61525E-01  4640   0.286E-01    0.313E-01
RMM:   2    -0.232397822127E+04    0.10125E-02   -0.61118E-03  3719   0.263E-02    0.172E-01
RMM:   3    -0.232397829890E+04   -0.77632E-04   -0.10586E-03  4064   0.145E-02    0.197E-01
RMM:   4    -0.232397798084E+04    0.31805E-03   -0.64052E-04  3407   0.101E-02    0.800E-02
RMM:   5    -0.232397795035E+04    0.30496E-04   -0.96924E-05  2913   0.461E-03    0.334E-02
RMM:   6    -0.232397794747E+04    0.28823E-05   -0.31067E-05  2460   0.321E-03
  26 F= -.23449181E+04 E0= -.23449181E+04  d E =-.620763E-14  mag=     6.0000
       N       E                     dE             d eps       ncg     rms          rms(c)
DAV:   1    -0.232397866329E+04   -0.71294E-03   -0.13068E+00  4640   0.425E-01    0.525E-01
RMM:   2    -0.232397478197E+04    0.38813E-02   -0.18024E-02  3919   0.420E-02    0.269E-01
RMM:   3    -0.232397409635E+04    0.68562E-03   -0.18595E-03  4146   0.211E-02    0.165E-01
RMM:   4    -0.232397459770E+04   -0.50135E-03   -0.16420E-03  4084   0.149E-02    0.273E-01
RMM:   5    -0.232397395265E+04    0.64505E-03   -0.41825E-04  3431   0.972E-03    0.316E-02
RMM:   6    -0.232397395785E+04   -0.51916E-05   -0.84531E-05  2831   0.480E-03
  27 F= -.23449138E+04 E0= -.23449138E+04  d E =-.304818E-14  mag=     6.0000
       N       E                     dE             d eps       ncg     rms          rms(c)
DAV:   1    -0.232396906286E+04    0.48898E-02   -0.66336E-01  4960   0.318E-01    0.461E-01
RMM:   2    -0.232396523839E+04    0.38245E-02   -0.14280E-02  3884   0.396E-02    0.227E-01
RMM:   3    -0.232396476668E+04    0.47171E-03   -0.14320E-03  3995   0.183E-02    0.153E-01
RMM:   4    -0.232396497059E+04   -0.20391E-03   -0.12106E-03  4032   0.133E-02    0.207E-01
RMM:   5    -0.232396455087E+04    0.41972E-03   -0.29023E-04  3466   0.831E-03    0.350E-02
RMM:   6    -0.232396455547E+04   -0.46028E-05   -0.72696E-05  2702   0.419E-03
  28 F= -.23449047E+04 E0= -.23449047E+04  d E =-.497277E-14  mag=     6.0000
       N       E                     dE             d eps       ncg     rms          rms(c)
DAV:   1    -0.232399360379E+04   -0.29053E-01   -0.12711E+00  4880   0.428E-01    0.505E-01
RMM:   2    -0.232398994532E+04    0.36585E-02   -0.14404E-02  3879   0.408E-02    0.262E-01
RMM:   3    -0.232398954070E+04    0.40462E-03   -0.13480E-03  3800   0.190E-02    0.167E-01
RMM:   4    -0.232398998235E+04   -0.44165E-03   -0.15437E-03  4208   0.148E-02    0.262E-01
RMM:   5    -0.232398937003E+04    0.61232E-03   -0.40344E-04  3457   0.942E-03    0.402E-02
RMM:   6    -0.232398936785E+04    0.21746E-05   -0.85294E-05  2832   0.480E-03
  29 F= -.23449292E+04 E0= -.23449292E+04  d E =-.472957E-14  mag=     6.0000
       N       E                     dE             d eps       ncg     rms          rms(c)
DAV:   1    -0.232398042285E+04    0.89472E-02   -0.61643E-01  4480   0.296E-01    0.297E-01
RMM:   2    -0.232397961887E+04    0.80399E-03   -0.43452E-03  3724   0.234E-02    0.164E-01
RMM:   3    -0.232397958938E+04    0.29487E-04   -0.61425E-04  3676   0.106E-02    0.136E-01
RMM:   4    -0.232397956551E+04    0.23866E-04   -0.52994E-04  3331   0.882E-03    0.115E-01
RMM:   5    -0.232397947413E+04    0.91385E-04   -0.97788E-05  2912   0.531E-03    0.295E-02
RMM:   6    -0.232397946892E+04    0.52104E-05   -0.21985E-05  2499   0.307E-03
  30 F= -.23449199E+04 E0= -.23449199E+04  d E =-.531179E-14  mag=     6.0000
       N       E                     dE             d eps       ncg     rms          rms(c)
DAV:   1    -0.232398789835E+04   -0.84242E-02   -0.11907E+00  4560   0.420E-01    0.347E-01
RMM:   2    -0.232398776137E+04    0.13697E-03   -0.39720E-03  3612   0.243E-02    0.206E-01
RMM:   3    -0.232398807106E+04   -0.30969E-03   -0.13550E-03  4075   0.140E-02    0.224E-01
RMM:   4    -0.232398767891E+04    0.39215E-03   -0.56833E-04  3125   0.984E-03    0.394E-02
RMM:   5    -0.232398767422E+04    0.46919E-05   -0.60588E-05  2699   0.359E-03
  31 F= -.23449272E+04 E0= -.23449272E+04  d E =-.679193E-14  mag=     6.0000
       N       E                     dE             d eps       ncg     rms          rms(c)
DAV:   1    -0.232399844711E+04   -0.10768E-01   -0.56984E-01  4480   0.285E-01    0.250E-01
RMM:   2    -0.232399833193E+04    0.11518E-03   -0.38206E-03  3789   0.239E-02    0.193E-01
RMM:   3    -0.232399847285E+04   -0.14091E-03   -0.12542E-03  3747   0.145E-02    0.248E-01
RMM:   4    -0.232399797597E+04    0.49687E-03   -0.71278E-04  3737   0.105E-02    0.353E-02
RMM:   5    -0.232399797825E+04   -0.22740E-05   -0.78618E-05  2871   0.508E-03
  32 F= -.23449370E+04 E0= -.23449370E+04  d E =-.102905E-14  mag=     6.0000
       N       E                     dE             d eps       ncg     rms          rms(c)
DAV:   1    -0.232397091308E+04    0.27063E-01   -0.10750E+00  4480   0.361E-01    0.343E-01
RMM:   2    -0.232397003975E+04    0.87333E-03   -0.76474E-03  4251   0.317E-02    0.275E-01
RMM:   3    -0.232397020019E+04   -0.16045E-03   -0.27748E-03  4017   0.249E-02    0.326E-01
RMM:   4    -0.232396925527E+04    0.94493E-03   -0.12911E-03  4392   0.135E-02    0.605E-02
RMM:   5    -0.232396924707E+04    0.82026E-05   -0.11937E-04  3059   0.555E-03    0.325E-02
RMM:   6    -0.232396925174E+04   -0.46746E-05   -0.49306E-05  2872   0.351E-03
  33 F= -.23449104E+04 E0= -.23449104E+04  d E =-.246007E-13  mag=     6.0000
       N       E                     dE             d eps       ncg     rms          rms(c)
DAV:   1    -0.232400144371E+04   -0.32197E-01   -0.53780E-01  4480   0.264E-01    0.281E-01
RMM:   2    -0.232400154603E+04   -0.10232E-03   -0.58112E-03  4242   0.285E-02    0.284E-01
RMM:   3    -0.232400092668E+04    0.61935E-03   -0.17655E-03  4508   0.173E-02    0.210E-01
RMM:   4    -0.232400056552E+04    0.36116E-03   -0.56859E-04  3795   0.961E-03    0.778E-02
RMM:   5    -0.232400059529E+04   -0.29778E-04   -0.27709E-04  3102   0.800E-03    0.952E-02
RMM:   6    -0.232400051588E+04    0.79418E-04   -0.80410E-05  2811   0.439E-03    0.213E-02
RMM:   7    -0.232400051220E+04    0.36720E-05   -0.11741E-05  2675   0.238E-03
  34 F= -.23449397E+04 E0= -.23449397E+04  d E =-.956259E-15  mag=     6.0000
       N       E                     dE             d eps       ncg     rms          rms(c)
DAV:   1    -0.232396520714E+04    0.35309E-01   -0.10770E+00  4480   0.369E-01    0.351E-01
RMM:   2    -0.232396744644E+04   -0.22393E-02   -0.12197E-02  4567   0.421E-02    0.511E-01
RMM:   3    -0.232396483172E+04    0.26147E-02   -0.29245E-03  4730   0.238E-02    0.178E-01
RMM:   4    -0.232396462409E+04    0.20763E-03   -0.66420E-04  3800   0.954E-03    0.915E-02
RMM:   5    -0.232396464069E+04   -0.16604E-04   -0.30570E-04  3245   0.838E-03    0.970E-02
RMM:   6    -0.232396456435E+04    0.76346E-04   -0.10449E-04  2852   0.495E-03    0.374E-02
RMM:   7    -0.232396455369E+04    0.10654E-04   -0.13052E-05  2691   0.261E-03    0.108E-02
RMM:   8    -0.232396455279E+04    0.90089E-06   -0.38151E-06  2556   0.165E-03
  35 F= -.23449056E+04 E0= -.23449056E+04  d E =-.228446E-13  mag=     6.0000
       N       E                     dE             d eps       ncg     rms          rms(c)
DAV:   1    -0.232396216854E+04    0.23852E-02   -0.55008E-01  4480   0.263E-01    0.239E-01
RMM:   2    -0.232396368420E+04   -0.15157E-02   -0.68342E-03  4458   0.313E-02    0.425E-01
RMM:   3    -0.232396189500E+04    0.17892E-02   -0.15808E-03  4237   0.173E-02    0.990E-02
RMM:   4    -0.232396185750E+04    0.37494E-04   -0.34599E-04  3428   0.697E-03    0.494E-02
RMM:   5    -0.232396184672E+04    0.10783E-04   -0.60796E-05  2876   0.437E-03    0.247E-02
RMM:   6    -0.232396184594E+04    0.77728E-06   -0.14782E-05  2590   0.242E-03
  36 F= -.23449018E+04 E0= -.23449018E+04  d E =-.201982E-13  mag=     6.0000
       N       E                     dE             d eps       ncg     rms          rms(c)
DAV:   1    -0.232400265238E+04   -0.40806E-01   -0.11024E+00  4480   0.369E-01    0.294E-01
RMM:   2    -0.232400356880E+04   -0.91642E-03   -0.67524E-03  4350   0.310E-02    0.379E-01
RMM:   3    -0.232400240077E+04    0.11680E-02   -0.18766E-03  4365   0.178E-02    0.155E-01
RMM:   4    -0.232400220623E+04    0.19454E-03   -0.50007E-04  3879   0.823E-03    0.701E-02
RMM:   5    -0.232400226768E+04   -0.61455E-04   -0.22049E-04  2960   0.610E-03    0.930E-02
RMM:   6    -0.232400219639E+04    0.71294E-04   -0.56381E-05  2652   0.377E-03    0.205E-02
RMM:   7    -0.232400219215E+04    0.42400E-05   -0.14538E-05  2549   0.187E-03
  37 F= -.23449422E+04 E0= -.23449422E+04  d E =-.110328E-14  mag=     6.0000
