       N       E                     dE             d eps       ncg     rms          rms(c)
DAV:   1     0.128845536893E+05    0.12885E+05   -0.83376E+05  4488   0.144E+03
DAV:   2    -0.105281826302E+04   -0.13937E+05   -0.13335E+05  5088   0.330E+02
DAV:   3    -0.247265009311E+04   -0.14198E+04   -0.14049E+04  5424   0.112E+02
DAV:   4    -0.251638620459E+04   -0.43736E+02   -0.43508E+02  6768   0.290E+01
DAV:   5    -0.251712175252E+04   -0.73555E+00   -0.73420E+00  5856   0.327E+00    0.170E+02
RMM:   6    -0.148834640294E+04    0.10288E+04   -0.19356E+03  4426   0.383E+01    0.721E+01
RMM:   7    -0.165317375155E+04   -0.16483E+03   -0.29279E+02  4992   0.143E+01    0.483E+01
RMM:   8    -0.171095965544E+04   -0.57786E+02   -0.40376E+01  5373   0.678E+00    0.439E+01
RMM:   9    -0.179275442899E+04   -0.81795E+02   -0.72525E+01  4972   0.764E+00    0.353E+01
RMM:  10    -0.192336749664E+04   -0.13061E+03   -0.61680E+01  5307   0.761E+00    0.243E+01
RMM:  11    -0.198588553337E+04   -0.62518E+02   -0.23416E+01  5279   0.421E+00    0.254E+01
RMM:  12    -0.204561995122E+04   -0.59734E+02   -0.21311E+01  5034   0.365E+00    0.170E+01
RMM:  13    -0.210288819814E+04   -0.57268E+02   -0.20900E+01  4978   0.354E+00    0.125E+01
RMM:  14    -0.223326959359E+04   -0.13038E+03   -0.10619E+02  4445   0.736E+00    0.908E+00
RMM:  15    -0.228360316333E+04   -0.50334E+02   -0.43018E+01  4417   0.489E+00    0.608E+00
RMM:  16    -0.230443762325E+04   -0.20834E+02   -0.22668E+01  4733   0.347E+00    0.435E+00
RMM:  17    -0.230830789197E+04   -0.38703E+01   -0.44540E+00  4918   0.170E+00    0.273E+00
RMM:  18    -0.231115198935E+04   -0.28441E+01   -0.18185E+00  4662   0.912E-01    0.126E+00
RMM:  19    -0.231165699012E+04   -0.50500E+00   -0.44707E-01  4802   0.590E-01    0.706E-01
RMM:  20    -0.231184006481E+04   -0.18307E+00   -0.14088E-01  4652   0.240E-01    0.388E-01
RMM:  21    -0.231188752445E+04   -0.47460E-01   -0.36587E-02  4660   0.159E-01    0.201E-01
RMM:  22    -0.231191226544E+04   -0.24741E-01   -0.11731E-02  4660   0.864E-02    0.136E-01
RMM:  23    -0.231192880437E+04   -0.16539E-01   -0.67495E-03  4452   0.662E-02    0.110E-01
RMM:  24    -0.231193835143E+04   -0.95471E-02   -0.33941E-03  4590   0.474E-02    0.508E-02
RMM:  25    -0.231194402441E+04   -0.56730E-02   -0.19856E-03  4544   0.334E-02    0.374E-02
RMM:  26    -0.231194716503E+04   -0.31406E-02   -0.11796E-03  4399   0.265E-02    0.232E-02
RMM:  27    -0.231194798339E+04   -0.81837E-03   -0.32174E-04  4093   0.163E-02    0.136E-02
RMM:  28    -0.231194831347E+04   -0.33007E-03   -0.10252E-04  3674   0.868E-03    0.693E-03
RMM:  29    -0.231194850911E+04   -0.19564E-03   -0.46012E-05  3432   0.700E-03    0.493E-03
RMM:  30    -0.231194860994E+04   -0.10083E-03   -0.24861E-05  3132   0.479E-03    0.285E-03
RMM:  31    -0.231194865310E+04   -0.43159E-04   -0.12242E-05  2886   0.387E-03    0.181E-03
RMM:  32    -0.231194866953E+04   -0.16428E-04   -0.72374E-06  2784   0.300E-03    0.960E-04
RMM:  33    -0.231194867329E+04   -0.37600E-05   -0.38677E-06  2412   0.233E-03
   1 F= -.23327312E+04 E0= -.23327312E+04  d E =-.233273E+04  mag=     5.0000
       N       E                     dE             d eps       ncg     rms          rms(c)
DAV:   1    -0.231190313801E+04    0.45532E-01   -0.43918E+00  5120   0.180E+00    0.710E-01
RMM:   2    -0.231199923937E+04   -0.96101E-01   -0.10027E+00  6032   0.488E-01    0.527E-01
RMM:   3    -0.231200708811E+04   -0.78487E-02   -0.10732E-01  5719   0.178E-01    0.518E-01
RMM:   4    -0.231200502844E+04    0.20597E-02   -0.95051E-03  5746   0.388E-02    0.235E-01
RMM:   5    -0.231200412576E+04    0.90268E-03   -0.21428E-03  5494   0.237E-02    0.133E-01
RMM:   6    -0.231200399176E+04    0.13400E-03   -0.12188E-03  4925   0.176E-02    0.119E-01
RMM:   7    -0.231200384473E+04    0.14703E-03   -0.28778E-04  3750   0.122E-02    0.458E-02
RMM:   8    -0.231200381246E+04    0.32270E-04   -0.63264E-05  3265   0.563E-03    0.171E-02
RMM:   9    -0.231200380229E+04    0.10174E-04   -0.26025E-05  2935   0.480E-03    0.942E-03
RMM:  10    -0.231200379942E+04    0.28692E-05   -0.98282E-06  2863   0.337E-03
   2 F= -.23327868E+04 E0= -.23327868E+04  d E =-.555834E-01  mag=     5.0000
       N       E                     dE             d eps       ncg     rms          rms(c)
DAV:   1    -0.231194878950E+04    0.55013E-01   -0.29539E+00  4688   0.151E+00    0.584E-01
RMM:   2    -0.231201391604E+04   -0.65127E-01   -0.67996E-01  6008   0.410E-01    0.427E-01
RMM:   3    -0.231201913822E+04   -0.52222E-02   -0.70089E-02  5684   0.147E-01    0.412E-01
RMM:   4    -0.231201786176E+04    0.12765E-02   -0.62972E-03  5605   0.319E-02    0.192E-01
RMM:   5    -0.231201721584E+04    0.64592E-03   -0.15111E-03  5394   0.205E-02    0.991E-02
RMM:   6    -0.231201708378E+04    0.13206E-03   -0.63596E-04  4711   0.139E-02    0.495E-02
RMM:   7    -0.231201707824E+04    0.55367E-05   -0.13642E-04  3284   0.939E-03    0.573E-02
RMM:   8    -0.231201704024E+04    0.38001E-04   -0.44740E-05  3009   0.517E-03    0.129E-02
RMM:   9    -0.231201703365E+04    0.65896E-05   -0.20111E-05  2925   0.399E-03
   3 F= -.23328005E+04 E0= -.23328005E+04  d E =-.692664E-01  mag=     5.0000
       N       E                     dE             d eps       ncg     rms          rms(c)
DAV:   1    -0.231194322339E+04    0.73817E-01   -0.55929E+00  4608   0.235E+00    0.921E-01
RMM:   2    -0.231203818149E+04   -0.94958E-01   -0.10226E+00  5942   0.552E-01    0.483E-01
RMM:   3    -0.231204569813E+04   -0.75166E-02   -0.10488E-01  5667   0.212E-01    0.500E-01
RMM:   4    -0.231204396124E+04    0.17369E-02   -0.10335E-02  5955   0.479E-02    0.265E-01
RMM:   5    -0.231204283203E+04    0.11292E-02   -0.29169E-03  5499   0.330E-02    0.126E-01
RMM:   6    -0.231204266185E+04    0.17018E-03   -0.96708E-04  5106   0.196E-02    0.886E-02
RMM:   7    -0.231204260912E+04    0.52732E-04   -0.28684E-04  4330   0.122E-02    0.616E-02
RMM:   8    -0.231204254732E+04    0.61798E-04   -0.63021E-05  3350   0.606E-03    0.172E-02
RMM:   9    -0.231204253131E+04    0.16014E-04   -0.27148E-05  2991   0.465E-03    0.921E-03
RMM:  10    -0.231204252515E+04    0.61535E-05   -0.10464E-05  2858   0.383E-03
   4 F= -.23328267E+04 E0= -.23328267E+04  d E =-.261595E-01  mag=     5.0000
       N       E                     dE             d eps       ncg     rms          rms(c)
DAV:   1    -0.231204250498E+04    0.26325E-04   -0.24120E-03  5216   0.491E-02    0.200E-02
RMM:   2    -0.231204254769E+04   -0.42707E-04   -0.45608E-04  4616   0.128E-02    0.106E-02
RMM:   3    -0.231204255102E+04   -0.33329E-05   -0.45947E-05  2866   0.591E-03
   5 F= -.23328267E+04 E0= -.23328267E+04  d E =-.261712E-01  mag=     5.0000
       N       E                     dE             d eps       ncg     rms          rms(c)
DAV:   1    -0.231202670018E+04    0.15848E-01   -0.17687E+00  4576   0.121E+00    0.394E-01
RMM:   2    -0.231205809350E+04   -0.31393E-01   -0.33544E-01  6127   0.277E-01    0.217E-01
RMM:   3    -0.231206107445E+04   -0.29810E-02   -0.33844E-02  5544   0.104E-01    0.126E-01
RMM:   4    -0.231206115133E+04   -0.76880E-04   -0.32172E-03  4736   0.219E-02    0.922E-02
RMM:   5    -0.231206115526E+04   -0.39240E-05   -0.44018E-04  4293   0.136E-02    0.107E-01
RMM:   6    -0.231206103996E+04    0.11530E-03   -0.18957E-04  3642   0.887E-03    0.210E-02
RMM:   7    -0.231206103936E+04    0.59805E-06   -0.28007E-05  2927   0.544E-03
   6 F= -.23328453E+04 E0= -.23328453E+04  d E =-.186408E-01  mag=     5.0000
       N       E                     dE             d eps       ncg     rms          rms(c)
DAV:   1    -0.231196000009E+04    0.10104E+00   -0.58219E+00  4512   0.219E+00    0.716E-01
RMM:   2    -0.231206403843E+04   -0.10404E+00   -0.11125E+00  6146   0.505E-01    0.408E-01
RMM:   3    -0.231207418407E+04   -0.10146E-01   -0.11691E-01  5725   0.184E-01    0.240E-01
RMM:   4    -0.231207442588E+04   -0.24181E-03   -0.10749E-02  5233   0.386E-02    0.168E-01
RMM:   5    -0.231207405259E+04    0.37328E-03   -0.11512E-03  4888   0.232E-02    0.635E-02
RMM:   6    -0.231207410500E+04   -0.52403E-04   -0.37710E-04  4515   0.141E-02    0.866E-02
RMM:   7    -0.231207403262E+04    0.72383E-04   -0.91137E-05  3141   0.809E-03    0.177E-02
RMM:   8    -0.231207402828E+04    0.43397E-05   -0.18847E-05  2936   0.355E-03
   7 F= -.23328585E+04 E0= -.23328585E+04  d E =-.318750E-01  mag=     5.0000
       N       E                     dE             d eps       ncg     rms          rms(c)
DAV:   1    -0.231206694068E+04    0.70919E-02   -0.11221E+00  4544   0.990E-01    0.305E-01
RMM:   2    -0.231208500847E+04   -0.18068E-01   -0.19392E-01  6142   0.214E-01    0.163E-01
RMM:   3    -0.231208674709E+04   -0.17386E-02   -0.19276E-02  5494   0.782E-02    0.109E-01
RMM:   4    -0.231208684187E+04   -0.94779E-04   -0.19689E-03  4218   0.166E-02    0.106E-01
RMM:   5    -0.231208673030E+04    0.11158E-03   -0.24053E-04  3679   0.957E-03    0.655E-02
RMM:   6    -0.231208669876E+04    0.31539E-04   -0.18713E-04  4012   0.917E-03    0.434E-02
RMM:   7    -0.231208668628E+04    0.12475E-04   -0.50820E-05  3020   0.631E-03    0.219E-02
RMM:   8    -0.231208668219E+04    0.40914E-05   -0.74023E-06  2833   0.310E-03
   8 F= -.23328711E+04 E0= -.23328711E+04  d E =-.125301E-01  mag=     5.0000
       N       E                     dE             d eps       ncg     rms          rms(c)
DAV:   1    -0.231195948755E+04    0.12720E+00   -0.79635E+00  4480   0.264E+00    0.818E-01
RMM:   2    -0.231208875035E+04   -0.12926E+00   -0.13845E+00  6140   0.574E-01    0.503E-01
RMM:   3    -0.231210175103E+04   -0.13001E-01   -0.14948E-01  5827   0.210E-01    0.365E-01
RMM:   4    -0.231210182562E+04   -0.74585E-04   -0.14156E-02  5747   0.431E-02    0.276E-01
RMM:   5    -0.231210107109E+04    0.75453E-03   -0.18291E-03  5189   0.239E-02    0.165E-01
RMM:   6    -0.231210075798E+04    0.31311E-03   -0.13149E-03  5092   0.208E-02    0.893E-02
RMM:   7    -0.231210075087E+04    0.71074E-05   -0.29878E-04  3908   0.136E-02    0.758E-02
RMM:   8    -0.231210069431E+04    0.56557E-04   -0.77337E-05  3161   0.602E-03    0.248E-02
RMM:   9    -0.231210068730E+04    0.70123E-05   -0.16998E-05  2874   0.431E-03
   9 F= -.23328847E+04 E0= -.23328847E+04  d E =-.261747E-01  mag=     5.0000
       N       E                     dE             d eps       ncg     rms          rms(c)
DAV:   1    -0.231209538549E+04    0.53088E-02   -0.91072E-01  4576   0.929E-01    0.305E-01
RMM:   2    -0.231210816594E+04   -0.12780E-01   -0.13732E-01  6000   0.197E-01    0.165E-01
RMM:   3    -0.231210932149E+04   -0.11556E-02   -0.14059E-02  5583   0.750E-02    0.152E-01
RMM:   4    -0.231210924067E+04    0.80827E-04   -0.14906E-03  4546   0.172E-02    0.948E-02
RMM:   5    -0.231210911750E+04    0.12317E-03   -0.30656E-04  4455   0.117E-02    0.488E-02
RMM:   6    -0.231210909227E+04    0.25231E-04   -0.11531E-04  4013   0.853E-03    0.175E-02
RMM:   7    -0.231210909408E+04   -0.18115E-05   -0.20154E-05  2890   0.593E-03
  10 F= -.23328927E+04 E0= -.23328927E+04  d E =-.798670E-02  mag=     5.0000
       N       E                     dE             d eps       ncg     rms          rms(c)
DAV:   1    -0.231208794122E+04    0.21151E-01   -0.16934E+00  4512   0.127E+00    0.418E-01
RMM:   2    -0.231211179089E+04   -0.23850E-01   -0.25625E-01  5994   0.271E-01    0.231E-01
RMM:   3    -0.231211399521E+04   -0.22043E-02   -0.26728E-02  5668   0.104E-01    0.218E-01
RMM:   4    -0.231211379138E+04    0.20382E-03   -0.28119E-03  5291   0.237E-02    0.130E-01
RMM:   5    -0.231211355772E+04    0.23366E-03   -0.57120E-04  4874   0.151E-02    0.671E-02
RMM:   6    -0.231211350459E+04    0.53130E-04   -0.22536E-04  4416   0.111E-02    0.212E-02
RMM:   7    -0.231211350098E+04    0.36173E-05   -0.25490E-05  2938   0.688E-03
  11 F= -.23328965E+04 E0= -.23328965E+04  d E =-.118146E-01  mag=     5.0000
       N       E                     dE             d eps       ncg     rms          rms(c)
DAV:   1    -0.231210471167E+04    0.87929E-02   -0.12365E+00  4512   0.106E+00    0.332E-01
RMM:   2    -0.231212234645E+04   -0.17635E-01   -0.18404E-01  6103   0.236E-01    0.281E-01
RMM:   3    -0.231212358113E+04   -0.12347E-02   -0.18654E-02  5792   0.811E-02    0.216E-01
RMM:   4    -0.231212319752E+04    0.38361E-03   -0.19580E-03  4971   0.195E-02    0.989E-02
RMM:   5    -0.231212312311E+04    0.74405E-04   -0.36380E-04  4533   0.119E-02    0.904E-02
RMM:   6    -0.231212306134E+04    0.61772E-04   -0.22986E-04  3579   0.958E-03    0.494E-02
RMM:   7    -0.231212304201E+04    0.19328E-04   -0.60022E-05  3367   0.686E-03    0.126E-02
RMM:   8    -0.231212304206E+04   -0.53376E-07   -0.10766E-05  2884   0.460E-03
  12 F= -.23329055E+04 E0= -.23329055E+04  d E =-.899632E-02  mag=     5.0000
       N       E                     dE             d eps       ncg     rms          rms(c)
DAV:   1    -0.231208254684E+04    0.40495E-01   -0.31351E+00  4496   0.169E+00    0.524E-01
RMM:   2    -0.231212709415E+04   -0.44547E-01   -0.46678E-01  6131   0.377E-01    0.418E-01
RMM:   3    -0.231213045532E+04   -0.33612E-02   -0.47466E-02  5912   0.127E-01    0.334E-01
RMM:   4    -0.231212957340E+04    0.88192E-03   -0.49565E-03  5586   0.306E-02    0.163E-01
RMM:   5    -0.231212933486E+04    0.23855E-03   -0.93024E-04  5109   0.182E-02    0.136E-01
RMM:   6    -0.231212921411E+04    0.12075E-03   -0.59389E-04  4563   0.139E-02    0.861E-02
RMM:   7    -0.231212914714E+04    0.66966E-04   -0.15509E-04  4166   0.926E-03    0.244E-02
RMM:   8    -0.231212914332E+04    0.38230E-05   -0.25881E-05  2932   0.556E-03
  13 F= -.23329108E+04 E0= -.23329108E+04  d E =-.142363E-01  mag=     5.0000
       N       E                     dE             d eps       ncg     rms          rms(c)
DAV:   1    -0.231211955037E+04    0.95968E-02   -0.11505E+00  4512   0.101E+00    0.329E-01
RMM:   2    -0.231213729090E+04   -0.17741E-01   -0.18040E-01  6259   0.232E-01    0.349E-01
RMM:   3    -0.231213777952E+04   -0.48862E-03   -0.17549E-02  5902   0.750E-02    0.194E-01
RMM:   4    -0.231213753202E+04    0.24750E-03   -0.19492E-03  4862   0.181E-02    0.893E-02
RMM:   5    -0.231213750295E+04    0.29072E-04   -0.25567E-04  3881   0.103E-02    0.948E-02
RMM:   6    -0.231213742340E+04    0.79544E-04   -0.20061E-04  3692   0.901E-03    0.447E-02
RMM:   7    -0.231213741150E+04    0.11900E-04   -0.66642E-05  3125   0.720E-03    0.104E-02
RMM:   8    -0.231213741236E+04   -0.86315E-06   -0.10341E-05  2878   0.458E-03
  14 F= -.23329190E+04 E0= -.23329190E+04  d E =-.824793E-02  mag=     5.0000
       N       E                     dE             d eps       ncg     rms          rms(c)
DAV:   1    -0.231202502028E+04    0.11239E+00   -0.77493E+00  4464   0.261E+00    0.862E-01
RMM:   2    -0.231214681088E+04   -0.12179E+00   -0.12301E+00  6205   0.609E-01    0.967E-01
RMM:   3    -0.231214821756E+04   -0.14067E-02   -0.12034E-01  6031   0.196E-01    0.487E-01
RMM:   4    -0.231214668383E+04    0.15337E-02   -0.13124E-02  5553   0.465E-02    0.235E-01
RMM:   5    -0.231214652429E+04    0.15954E-03   -0.18471E-03  5441   0.260E-02    0.257E-01
RMM:   6    -0.231214590896E+04    0.61533E-03   -0.13452E-03  5262   0.200E-02    0.113E-01
RMM:   7    -0.231214581983E+04    0.89134E-04   -0.43664E-04  4669   0.150E-02    0.264E-02
RMM:   8    -0.231214582126E+04   -0.14315E-05   -0.49035E-05  3009   0.628E-03
  15 F= -.23329274E+04 E0= -.23329274E+04  d E =-.165959E-01  mag=     5.0000
       N       E                     dE             d eps       ncg     rms          rms(c)
DAV:   1    -0.231213231899E+04    0.13501E-01   -0.12784E+00  4512   0.102E+00    0.347E-01
RMM:   2    -0.231215448022E+04   -0.22161E-01   -0.22184E-01  6316   0.249E-01    0.427E-01
RMM:   3    -0.231215449296E+04   -0.12740E-04   -0.20535E-02  5932   0.755E-02    0.189E-01
RMM:   4    -0.231215429940E+04    0.19356E-03   -0.22601E-03  4766   0.180E-02    0.938E-02
RMM:   5    -0.231215426658E+04    0.32825E-04   -0.26986E-04  3798   0.100E-02    0.992E-02
RMM:   6    -0.231215418115E+04    0.85427E-04   -0.22661E-04  3778   0.915E-03    0.516E-02
RMM:   7    -0.231215416532E+04    0.15831E-04   -0.10175E-04  3224   0.776E-03    0.119E-02
RMM:   8    -0.231215416598E+04   -0.66127E-06   -0.11477E-05  2888   0.447E-03
  16 F= -.23329358E+04 E0= -.23329358E+04  d E =-.841573E-02  mag=     5.0000
       N       E                     dE             d eps       ncg     rms          rms(c)
DAV:   1    -0.231197116774E+04    0.18300E+00   -0.11476E+01  4464   0.306E+00    0.106E+00
RMM:   2    -0.231217639684E+04   -0.20523E+00   -0.20315E+00  6336   0.752E-01    0.140E+00
RMM:   3    -0.231217179680E+04    0.46000E-02   -0.19080E-01  6124   0.229E-01    0.535E-01
RMM:   4    -0.231217040670E+04    0.13901E-02   -0.20641E-02  5434   0.530E-02    0.281E-01
RMM:   5    -0.231217014522E+04    0.26148E-03   -0.24848E-03  5436   0.289E-02    0.304E-01
RMM:   6    -0.231216933249E+04    0.81273E-03   -0.18753E-03  5356   0.226E-02    0.158E-01
RMM:   7    -0.231216915686E+04    0.17563E-03   -0.98816E-04  4949   0.194E-02    0.462E-02
RMM:   8    -0.231216914340E+04    0.13456E-04   -0.80139E-05  3124   0.732E-03    0.198E-02
RMM:   9    -0.231216914700E+04   -0.36009E-05   -0.25247E-05  2906   0.448E-03
  17 F= -.23329510E+04 E0= -.23329510E+04  d E =-.235855E-01  mag=     5.0000
       N       E                     dE             d eps       ncg     rms          rms(c)
DAV:   1    -0.231213261591E+04    0.36527E-01   -0.22318E+00  4512   0.134E+00    0.460E-01
RMM:   2    -0.231217162908E+04   -0.39013E-01   -0.38751E-01  6346   0.327E-01    0.597E-01
RMM:   3    -0.231217116837E+04    0.46071E-03   -0.35987E-02  6061   0.100E-01    0.242E-01
RMM:   4    -0.231217087131E+04    0.29706E-03   -0.39735E-03  5169   0.236E-02    0.126E-01
RMM:   5    -0.231217082772E+04    0.43591E-04   -0.48762E-04  4257   0.128E-02    0.136E-01
RMM:   6    -0.231217065190E+04    0.17582E-03   -0.38712E-04  4348   0.114E-02    0.656E-02
RMM:   7    -0.231217062610E+04    0.25797E-04   -0.18668E-04  3547   0.983E-03    0.171E-02
RMM:   8    -0.231217062620E+04   -0.91590E-07   -0.18275E-05  2905   0.467E-03
  18 F= -.23329525E+04 E0= -.23329525E+04  d E =-.251382E-01  mag=     5.0000
       N       E                     dE             d eps       ncg     rms          rms(c)
DAV:   1    -0.231212524272E+04    0.45383E-01   -0.35366E+00  4464   0.168E+00    0.593E-01
RMM:   2    -0.231218684175E+04   -0.61599E-01   -0.60558E-01  6268   0.414E-01    0.814E-01
RMM:   3    -0.231218499389E+04    0.18479E-02   -0.56280E-02  6017   0.127E-01    0.300E-01
RMM:   4    -0.231218446106E+04    0.53283E-03   -0.61488E-03  5180   0.295E-02    0.146E-01
RMM:   5    -0.231218418535E+04    0.27572E-03   -0.72858E-04  4886   0.177E-02    0.105E-01
RMM:   6    -0.231218410621E+04    0.79133E-04   -0.59496E-04  4537   0.162E-02    0.318E-02
RMM:   7    -0.231218410094E+04    0.52753E-05   -0.58214E-05  3117   0.747E-03
  19 F= -.23329651E+04 E0= -.23329651E+04  d E =-.126350E-01  mag=     5.0000
       N       E                     dE             d eps       ncg     rms          rms(c)
DAV:   1    -0.231207993129E+04    0.10417E+00   -0.66696E+00  4464   0.230E+00    0.822E-01
RMM:   2    -0.231219757350E+04   -0.11764E+00   -0.11536E+00  6254   0.568E-01    0.115E+00
RMM:   3    -0.231219276490E+04    0.48086E-02   -0.10837E-01  6033   0.177E-01    0.413E-01
RMM:   4    -0.231219173872E+04    0.10262E-02   -0.11677E-02  5308   0.408E-02    0.202E-01
RMM:   5    -0.231219129269E+04    0.44603E-03   -0.13816E-03  5086   0.240E-02    0.162E-01
RMM:   6    -0.231219133108E+04   -0.38387E-04   -0.12808E-03  5151   0.209E-02    0.161E-01
RMM:   7    -0.231219107821E+04    0.25287E-03   -0.40335E-04  3995   0.118E-02    0.381E-02
RMM:   8    -0.231219106604E+04    0.12177E-04   -0.48440E-05  2898   0.567E-03    0.162E-02
RMM:   9    -0.231219106852E+04   -0.24852E-05   -0.20860E-05  2910   0.359E-03
  20 F= -.23329709E+04 E0= -.23329709E+04  d E =-.184307E-01  mag=     5.0000
       N       E                     dE             d eps       ncg     rms          rms(c)
DAV:   1    -0.231213607325E+04    0.54993E-01   -0.39546E+00  4448   0.173E+00    0.651E-01
RMM:   2    -0.231220847547E+04   -0.72402E-01   -0.71057E-01  6302   0.440E-01    0.934E-01
RMM:   3    -0.231220534760E+04    0.31279E-02   -0.69531E-02  5993   0.139E-01    0.322E-01
RMM:   4    -0.231220473512E+04    0.61248E-03   -0.72768E-03  5265   0.315E-02    0.173E-01
RMM:   5    -0.231220466406E+04    0.71054E-04   -0.10648E-03  4884   0.183E-02    0.191E-01
RMM:   6    -0.231220436405E+04    0.30002E-03   -0.82291E-04  5104   0.155E-02    0.102E-01
RMM:   7    -0.231220428451E+04    0.79532E-04   -0.28771E-04  3843   0.112E-02    0.332E-02
RMM:   8    -0.231220427362E+04    0.10895E-04   -0.32366E-05  2887   0.525E-03    0.127E-02
RMM:   9    -0.231220427422E+04   -0.60283E-06   -0.15603E-05  2896   0.326E-03
  21 F= -.23329829E+04 E0= -.23329829E+04  d E =-.119633E-01  mag=     5.0000
       N       E                     dE             d eps       ncg     rms          rms(c)
DAV:   1    -0.231216841984E+04    0.35854E-01   -0.22972E+00  4472   0.132E+00    0.494E-01
RMM:   2    -0.231221018095E+04   -0.41761E-01   -0.41006E-01  6288   0.333E-01    0.709E-01
RMM:   3    -0.231220849641E+04    0.16845E-02   -0.40112E-02  5961   0.106E-01    0.248E-01
RMM:   4    -0.231220811609E+04    0.38032E-03   -0.41982E-03  5115   0.240E-02    0.130E-01
RMM:   5    -0.231220804379E+04    0.72302E-04   -0.59883E-04  4510   0.143E-02    0.137E-01
RMM:   6    -0.231220791293E+04    0.13086E-03   -0.46863E-04  4489   0.121E-02    0.840E-02
RMM:   7    -0.231220785431E+04    0.58618E-04   -0.16269E-04  3329   0.894E-03    0.245E-02
RMM:   8    -0.231220784791E+04    0.63969E-05   -0.19701E-05  2873   0.493E-03
  22 F= -.23329855E+04 E0= -.23329855E+04  d E =-.145851E-01  mag=     5.0000
       N       E                     dE             d eps       ncg     rms          rms(c)
DAV:   1    -0.231220016701E+04    0.76873E-02   -0.14167E+00  4480   0.107E+00    0.391E-01
RMM:   2    -0.231222010496E+04   -0.19938E-01   -0.20127E-01  5988   0.255E-01    0.473E-01
RMM:   3    -0.231221953651E+04    0.56845E-03   -0.19980E-02  5683   0.856E-02    0.236E-01
RMM:   4    -0.231221900147E+04    0.53504E-03   -0.19963E-03  5022   0.208E-02    0.107E-01
RMM:   5    -0.231221887539E+04    0.12608E-03   -0.51088E-04  4891   0.156E-02    0.627E-02
RMM:   6    -0.231221890342E+04   -0.28036E-04   -0.22841E-04  4147   0.102E-02    0.740E-02
RMM:   7    -0.231221884666E+04    0.56768E-04   -0.57855E-05  2920   0.586E-03    0.150E-02
RMM:   8    -0.231221884504E+04    0.16136E-05   -0.12212E-05  2880   0.338E-03
  23 F= -.23329961E+04 E0= -.23329961E+04  d E =-.105745E-01  mag=     5.0000
       N       E                     dE             d eps       ncg     rms          rms(c)
DAV:   1    -0.231220064836E+04    0.18198E-01   -0.17151E+00  4480   0.118E+00    0.431E-01
RMM:   2    -0.231222480126E+04   -0.24153E-01   -0.24440E-01  5994   0.282E-01    0.515E-01
RMM:   3    -0.231222415506E+04    0.64620E-03   -0.24260E-02  5719   0.917E-02    0.259E-01
RMM:   4    -0.231222350392E+04    0.65114E-03   -0.24216E-03  5079   0.229E-02    0.118E-01
RMM:   5    -0.231222335141E+04    0.15251E-03   -0.62594E-04  5047   0.171E-02    0.706E-02
RMM:   6    -0.231222338373E+04   -0.32321E-04   -0.28335E-04  4378   0.110E-02    0.829E-02
RMM:   7    -0.231222331209E+04    0.71644E-04   -0.69300E-05  2944   0.604E-03    0.164E-02
RMM:   8    -0.231222330956E+04    0.25299E-05   -0.14530E-05  2884   0.364E-03
  24 F= -.23330001E+04 E0= -.23330001E+04  d E =-.145811E-01  mag=     5.0000
       N       E                     dE             d eps       ncg     rms          rms(c)
DAV:   1    -0.231222533439E+04   -0.20223E-02   -0.94577E-01  4496   0.886E-01    0.284E-01
RMM:   2    -0.231223332922E+04   -0.79948E-02   -0.82645E-02  5919   0.181E-01    0.279E-01
RMM:   3    -0.231223337513E+04   -0.45915E-04   -0.78482E-03  5586   0.591E-02    0.198E-01
RMM:   4    -0.231223296323E+04    0.41190E-03   -0.86304E-04  4864   0.156E-02    0.786E-02
RMM:   5    -0.231223294627E+04    0.16966E-04   -0.36366E-04  4495   0.125E-02    0.814E-02
RMM:   6    -0.231223289859E+04    0.47677E-04   -0.15181E-04  3159   0.858E-03    0.346E-02
RMM:   7    -0.231223288932E+04    0.92639E-05   -0.20872E-05  2901   0.478E-03
  25 F= -.23330095E+04 E0= -.23330095E+04  d E =-.939623E-02  mag=     5.0000
       N       E                     dE             d eps       ncg     rms          rms(c)
DAV:   1    -0.231219088146E+04    0.42017E-01   -0.65982E+00  4464   0.234E+00    0.759E-01
RMM:   2    -0.231224786893E+04   -0.56987E-01   -0.58622E-01  5926   0.482E-01    0.764E-01
RMM:   3    -0.231224701216E+04    0.85677E-03   -0.55905E-02  5805   0.160E-01    0.508E-01
RMM:   4    -0.231224422946E+04    0.27827E-02   -0.60691E-03  5380   0.409E-02    0.202E-01
RMM:   5    -0.231224376323E+04    0.46623E-03   -0.23451E-03  5176   0.315E-02    0.101E-01
RMM:   6    -0.231224386451E+04   -0.10128E-03   -0.63959E-04  4875   0.186E-02    0.121E-01
RMM:   7    -0.231224372072E+04    0.14379E-03   -0.20403E-04  3505   0.801E-03    0.327E-02
RMM:   8    -0.231224370548E+04    0.15243E-04   -0.32990E-05  2950   0.481E-03    0.136E-02
RMM:   9    -0.231224370410E+04    0.13815E-05   -0.14582E-05  2890   0.334E-03
  26 F= -.23330199E+04 E0= -.23330199E+04  d E =-.197503E-01  mag=     5.0000
       N       E                     dE             d eps       ncg     rms          rms(c)
DAV:   1    -0.231224683355E+04   -0.31281E-02   -0.87566E-01  4512   0.827E-01    0.256E-01
RMM:   2    -0.231225391596E+04   -0.70824E-02   -0.71797E-02  6099   0.163E-01    0.284E-01
RMM:   3    -0.231225376444E+04    0.15152E-03   -0.70949E-03  5721   0.525E-02    0.160E-01
RMM:   4    -0.231225354030E+04    0.22413E-03   -0.79000E-04  4543   0.139E-02    0.761E-02
RMM:   5    -0.231225357939E+04   -0.39089E-04   -0.31611E-04  4105   0.111E-02    0.105E-01
RMM:   6    -0.231225347606E+04    0.10333E-03   -0.17735E-04  3527   0.841E-03    0.275E-02
RMM:   7    -0.231225347142E+04    0.46406E-05   -0.24833E-05  2904   0.515E-03
  27 F= -.23330295E+04 E0= -.23330295E+04  d E =-.963389E-02  mag=     5.0000
       N       E                     dE             d eps       ncg     rms          rms(c)
DAV:   1    -0.231221299148E+04    0.40485E-01   -0.78541E+00  4448   0.248E+00    0.772E-01
RMM:   2    -0.231227742732E+04   -0.64436E-01   -0.65152E-01  6075   0.492E-01    0.872E-01
RMM:   3    -0.231227560954E+04    0.18178E-02   -0.63499E-02  5942   0.159E-01    0.475E-01
RMM:   4    -0.231227366007E+04    0.19495E-02   -0.71860E-03  5174   0.409E-02    0.222E-01
RMM:   5    -0.231227378136E+04   -0.12129E-03   -0.27798E-03  5483   0.320E-02    0.276E-01
RMM:   6    -0.231227312914E+04    0.65222E-03   -0.14809E-03  5548   0.204E-02    0.102E-01
RMM:   7    -0.231227303663E+04    0.92510E-04   -0.18806E-04  3674   0.883E-03    0.274E-02
RMM:   8    -0.231227302669E+04    0.99384E-05   -0.32234E-05  2933   0.526E-03
  28 F= -.23330487E+04 E0= -.23330487E+04  d E =-.288089E-01  mag=     5.0000
       N       E                     dE             d eps       ncg     rms          rms(c)
DAV:   1    -0.231202199817E+04    0.25104E+00   -0.31171E+01  4448   0.496E+00    0.155E+00
RMM:   2    -0.231228899454E+04   -0.26700E+00   -0.26843E+00  6061   0.987E-01    0.180E+00
RMM:   3    -0.231227796930E+04    0.11025E-01   -0.25391E-01  5928   0.315E-01    0.937E-01
RMM:   4    -0.231227026722E+04    0.77021E-02   -0.28866E-02  5154   0.810E-02    0.442E-01
RMM:   5    -0.231226894993E+04    0.13173E-02   -0.10294E-02  5257   0.643E-02    0.386E-01
RMM:   6    -0.231226853641E+04    0.41352E-03   -0.48828E-03  5650   0.399E-02    0.282E-01
RMM:   7    -0.231226767948E+04    0.85693E-03   -0.10058E-03  5112   0.181E-02    0.646E-02
RMM:   8    -0.231226761821E+04    0.61272E-04   -0.14941E-04  3446   0.919E-03    0.306E-02
RMM:   9    -0.231226760765E+04    0.10555E-04   -0.69530E-05  3247   0.644E-03    0.144E-02
RMM:  10    -0.231226760865E+04   -0.10046E-05   -0.15877E-05  2917   0.456E-03
  29 F= -.23330425E+04 E0= -.23330425E+04  d E =-.226925E-01  mag=     5.0000
       N       E                     dE             d eps       ncg     rms          rms(c)
DAV:   1    -0.231218718006E+04    0.80428E-01   -0.11682E+01  4464   0.302E+00    0.916E-01
RMM:   2    -0.231228172060E+04   -0.94541E-01   -0.96833E-01  6047   0.594E-01    0.950E-01
RMM:   3    -0.231228271693E+04   -0.99633E-03   -0.96087E-02  5892   0.197E-01    0.622E-01
RMM:   4    -0.231227910879E+04    0.36081E-02   -0.10591E-02  5396   0.510E-02    0.284E-01
RMM:   5    -0.231227945966E+04   -0.35087E-03   -0.46814E-03  5573   0.387E-02    0.366E-01
RMM:   6    -0.231227819900E+04    0.12607E-02   -0.25859E-03  5778   0.267E-02    0.109E-01
RMM:   7    -0.231227809769E+04    0.10131E-03   -0.24509E-04  3877   0.100E-02    0.304E-02
RMM:   8    -0.231227808020E+04    0.17489E-04   -0.53857E-05  2972   0.593E-03    0.172E-02
RMM:   9    -0.231227807705E+04    0.31527E-05   -0.25280E-05  2933   0.430E-03
  30 F= -.23330534E+04 E0= -.23330534E+04  d E =-.335799E-01  mag=     5.0000
       N       E                     dE             d eps       ncg     rms          rms(c)
DAV:   1    -0.231227211304E+04    0.59672E-02   -0.20062E+00  4472   0.125E+00    0.425E-01
RMM:   2    -0.231229170058E+04   -0.19588E-01   -0.20289E-01  6072   0.258E-01    0.400E-01
RMM:   3    -0.231229234910E+04   -0.64852E-03   -0.20404E-02  5867   0.906E-02    0.286E-01
RMM:   4    -0.231229161701E+04    0.73209E-03   -0.22501E-03  5305   0.232E-02    0.120E-01
RMM:   5    -0.231229160782E+04    0.91854E-05   -0.75696E-04  4886   0.162E-02    0.128E-01
RMM:   6    -0.231229148667E+04    0.12115E-03   -0.43405E-04  4300   0.115E-02    0.619E-02
RMM:   7    -0.231229145062E+04    0.36055E-04   -0.48521E-05  2947   0.621E-03    0.159E-02
RMM:   8    -0.231229144796E+04    0.26590E-05   -0.11547E-05  2894   0.358E-03
  31 F= -.23330663E+04 E0= -.23330663E+04  d E =-.128899E-01  mag=     5.0000
       N       E                     dE             d eps       ncg     rms          rms(c)
DAV:   1    -0.231221046183E+04    0.80989E-01   -0.95064E+00  4464   0.272E+00    0.926E-01
RMM:   2    -0.231230528262E+04   -0.94821E-01   -0.97566E-01  6094   0.561E-01    0.901E-01
RMM:   3    -0.231230779961E+04   -0.25170E-02   -0.99401E-02  5902   0.196E-01    0.615E-01
RMM:   4    -0.231230449032E+04    0.33093E-02   -0.10654E-02  5588   0.496E-02    0.261E-01
RMM:   5    -0.231230417112E+04    0.31919E-03   -0.33584E-03  5245   0.344E-02    0.230E-01
RMM:   6    -0.231230398381E+04    0.18731E-03   -0.18535E-03  5449   0.232E-02    0.164E-01
RMM:   7    -0.231230371225E+04    0.27156E-03   -0.29777E-04  4121   0.112E-02    0.394E-02
RMM:   8    -0.231230369466E+04    0.17587E-04   -0.51642E-05  2975   0.572E-03    0.199E-02
RMM:   9    -0.231230368945E+04    0.52083E-05   -0.29665E-05  2897   0.439E-03
  32 F= -.23330775E+04 E0= -.23330775E+04  d E =-.240830E-01  mag=     5.0000
       N       E                     dE             d eps       ncg     rms          rms(c)
DAV:   1    -0.231228747893E+04    0.16216E-01   -0.27978E+00  4448   0.146E+00    0.496E-01
RMM:   2    -0.231231792825E+04   -0.30449E-01   -0.32238E-01  6114   0.303E-01    0.394E-01
RMM:   3    -0.231232043086E+04   -0.25026E-02   -0.34680E-02  5846   0.112E-01    0.343E-01
RMM:   4    -0.231231947929E+04    0.95156E-03   -0.35228E-03  5592   0.275E-02    0.153E-01
RMM:   5    -0.231231934537E+04    0.13392E-03   -0.97698E-04  4890   0.177E-02    0.118E-01
RMM:   6    -0.231231933400E+04    0.11374E-04   -0.58528E-04  4388   0.136E-02    0.985E-02
RMM:   7    -0.231231923671E+04    0.97284E-04   -0.11471E-04  3187   0.743E-03    0.270E-02
RMM:   8    -0.231231922912E+04    0.75889E-05   -0.17396E-05  2908   0.440E-03
  33 F= -.23330923E+04 E0= -.23330923E+04  d E =-.147917E-01  mag=     5.0000
       N       E                     dE             d eps       ncg     rms          rms(c)
DAV:   1    -0.231225370499E+04    0.65532E-01   -0.67954E+00  4448   0.228E+00    0.772E-01
RMM:   2    -0.231232788208E+04   -0.74177E-01   -0.78359E-01  6105   0.471E-01    0.622E-01
RMM:   3    -0.231233394646E+04   -0.60644E-02   -0.85862E-02  5875   0.175E-01    0.534E-01
RMM:   4    -0.231233168984E+04    0.22566E-02   -0.86105E-03  5854   0.425E-02    0.240E-01
RMM:   5    -0.231233128688E+04    0.40296E-03   -0.22947E-03  5162   0.270E-02    0.169E-01
RMM:   6    -0.231233134046E+04   -0.53573E-04   -0.13789E-03  5106   0.201E-02    0.160E-01
RMM:   7    -0.231233108357E+04    0.25689E-03   -0.32362E-04  4080   0.108E-02    0.496E-02
RMM:   8    -0.231233105605E+04    0.27521E-04   -0.44547E-05  2952   0.566E-03    0.184E-02
RMM:   9    -0.231233105060E+04    0.54464E-05   -0.21941E-05  2887   0.384E-03
  34 F= -.23331030E+04 E0= -.23331030E+04  d E =-.254440E-01  mag=     5.0000
       N       E                     dE             d eps       ncg     rms          rms(c)
DAV:   1    -0.231230982152E+04    0.21235E-01   -0.40539E+00  4464   0.184E+00    0.603E-01
RMM:   2    -0.231235356541E+04   -0.43744E-01   -0.47011E-01  6041   0.376E-01    0.379E-01
RMM:   3    -0.231235784101E+04   -0.42756E-02   -0.49609E-02  5729   0.138E-01    0.370E-01
RMM:   4    -0.231235705417E+04    0.78684E-03   -0.52584E-03  5606   0.325E-02    0.197E-01
RMM:   5    -0.231235675794E+04    0.29623E-03   -0.12100E-03  4973   0.205E-02    0.121E-01
RMM:   6    -0.231235677817E+04   -0.20229E-04   -0.72081E-04  4754   0.159E-02    0.115E-01
RMM:   7    -0.231235665375E+04    0.12442E-03   -0.21217E-04  3633   0.905E-03    0.458E-02
RMM:   8    -0.231235663120E+04    0.22554E-04   -0.28579E-05  2912   0.479E-03    0.118E-02
RMM:   9    -0.231235662877E+04    0.24318E-05   -0.11131E-05  2876   0.295E-03
  35 F= -.23331273E+04 E0= -.23331273E+04  d E =-.243460E-01  mag=     5.0000
       N       E                     dE             d eps       ncg     rms          rms(c)
DAV:   1    -0.231223947643E+04    0.11715E+00   -0.12008E+01  4448   0.318E+00    0.104E+00
RMM:   2    -0.231237016961E+04   -0.13069E+00   -0.13998E+00  6064   0.651E-01    0.681E-01
RMM:   3    -0.231238291860E+04   -0.12749E-01   -0.15215E-01  5810   0.241E-01    0.660E-01
RMM:   4    -0.231238024573E+04    0.26729E-02   -0.15638E-02  5961   0.565E-02    0.338E-01
RMM:   5    -0.231237933565E+04    0.91008E-03   -0.38334E-03  5218   0.346E-02    0.200E-01
RMM:   6    -0.231237929793E+04    0.37721E-04   -0.19972E-03  5411   0.262E-02    0.170E-01
RMM:   7    -0.231237906928E+04    0.22865E-03   -0.61878E-04  4800   0.150E-02    0.942E-02
RMM:   8    -0.231237897489E+04    0.94391E-04   -0.10118E-04  3055   0.620E-03    0.225E-02
RMM:   9    -0.231237896523E+04    0.96606E-05   -0.33857E-05  2897   0.469E-03
  36 F= -.23331475E+04 E0= -.23331475E+04  d E =-.445188E-01  mag=     5.0000
       N       E                     dE             d eps       ncg     rms          rms(c)
DAV:   1    -0.231234153138E+04    0.37444E-01   -0.56905E+00  4472   0.223E+00    0.761E-01
RMM:   2    -0.231240204591E+04   -0.60515E-01   -0.64701E-01  6032   0.449E-01    0.493E-01
RMM:   3    -0.231240761478E+04   -0.55689E-02   -0.68872E-02  5753   0.168E-01    0.470E-01
RMM:   4    -0.231240615941E+04    0.14554E-02   -0.75079E-03  5719   0.400E-02    0.215E-01
RMM:   5    -0.231240583872E+04    0.32069E-03   -0.16384E-03  4960   0.242E-02    0.153E-01
RMM:   6    -0.231240591609E+04   -0.77369E-04   -0.11162E-03  5173   0.192E-02    0.167E-01
RMM:   7    -0.231240564252E+04    0.27357E-03   -0.32844E-04  4461   0.122E-02    0.502E-02
RMM:   8    -0.231240561379E+04    0.28730E-04   -0.49571E-05  2928   0.558E-03    0.142E-02
RMM:   9    -0.231240560845E+04    0.53377E-05   -0.15335E-05  2875   0.361E-03
  37 F= -.23331734E+04 E0= -.23331734E+04  d E =-.259712E-01  mag=     5.0000
       N       E                     dE             d eps       ncg     rms          rms(c)
DAV:   1    -0.231235563174E+04    0.49982E-01   -0.54051E+00  4464   0.217E+00    0.738E-01
RMM:   2    -0.231241285482E+04   -0.57223E-01   -0.61260E-01  6043   0.437E-01    0.465E-01
RMM:   3    -0.231241814886E+04   -0.52940E-02   -0.65414E-02  5734   0.164E-01    0.443E-01
RMM:   4    -0.231241693907E+04    0.12098E-02   -0.70945E-03  5685   0.387E-02    0.214E-01
RMM:   5    -0.231241663826E+04    0.30081E-03   -0.15656E-03  4991   0.239E-02    0.156E-01
RMM:   6    -0.231241666636E+04   -0.28097E-04   -0.10804E-03  5136   0.189E-02    0.158E-01
RMM:   7    -0.231241641689E+04    0.24947E-03   -0.31028E-04  4439   0.119E-02    0.501E-02
RMM:   8    -0.231241638763E+04    0.29258E-04   -0.49446E-05  2930   0.558E-03    0.138E-02
RMM:   9    -0.231241638146E+04    0.61749E-05   -0.15613E-05  2874   0.369E-03
  38 F= -.23331835E+04 E0= -.23331835E+04  d E =-.359958E-01  mag=     5.0000
       N       E                     dE             d eps       ncg     rms          rms(c)
DAV:   1    -0.231238501536E+04    0.31372E-01   -0.39724E+00  4480   0.177E+00    0.602E-01
RMM:   2    -0.231243425284E+04   -0.49237E-01   -0.51768E-01  6217   0.366E-01    0.457E-01
RMM:   3    -0.231243843559E+04   -0.41827E-02   -0.56768E-02  5936   0.133E-01    0.360E-01
RMM:   4    -0.231243762327E+04    0.81231E-03   -0.58021E-03  5425   0.310E-02    0.170E-01
RMM:   5    -0.231243734068E+04    0.28259E-03   -0.94831E-04  4700   0.179E-02    0.977E-02
RMM:   6    -0.231243740130E+04   -0.60617E-04   -0.54244E-04  4761   0.148E-02    0.125E-01
RMM:   7    -0.231243728046E+04    0.12084E-03   -0.20790E-04  3444   0.904E-03    0.400E-02
RMM:   8    -0.231243726067E+04    0.19790E-04   -0.39172E-05  2914   0.454E-03    0.143E-02
RMM:   9    -0.231243725714E+04    0.35271E-05   -0.11885E-05  2859   0.303E-03
  39 F= -.23332042E+04 E0= -.23332042E+04  d E =-.207074E-01  mag=     5.0000
       N       E                     dE             d eps       ncg     rms          rms(c)
DAV:   1    -0.231223372047E+04    0.20354E+00   -0.17134E+01  4448   0.368E+00    0.125E+00
RMM:   2    -0.231244949481E+04   -0.21577E+00   -0.22645E+00  6230   0.764E-01    0.972E-01
RMM:   3    -0.231246674830E+04   -0.17253E-01   -0.25455E-01  5969   0.278E-01    0.721E-01
RMM:   4    -0.231246403638E+04    0.27119E-02   -0.25171E-02  5729   0.638E-02    0.360E-01
RMM:   5    -0.231246296937E+04    0.10670E-02   -0.42584E-03  5122   0.364E-02    0.247E-01
RMM:   6    -0.231246335359E+04   -0.38422E-03   -0.31434E-03  5510   0.308E-02    0.313E-01
RMM:   7    -0.231246248474E+04    0.86885E-03   -0.10780E-03  5221   0.188E-02    0.866E-02
RMM:   8    -0.231246239896E+04    0.85779E-04   -0.19712E-04  3299   0.790E-03    0.331E-02
RMM:   9    -0.231246238098E+04    0.17982E-04   -0.49516E-05  2907   0.556E-03    0.113E-02
RMM:  10    -0.231246238200E+04   -0.10162E-05   -0.21768E-05  2893   0.404E-03
  40 F= -.23332286E+04 E0= -.23332286E+04  d E =-.451155E-01  mag=     5.0000
       N       E                     dE             d eps       ncg     rms          rms(c)
DAV:   1    -0.231241962556E+04    0.42755E-01   -0.34578E+00  4592   0.165E+00    0.552E-01
RMM:   2    -0.231246247029E+04   -0.42845E-01   -0.45139E-01  6206   0.338E-01    0.393E-01
RMM:   3    -0.231246618984E+04   -0.37195E-02   -0.48033E-02  5870   0.123E-01    0.317E-01
RMM:   4    -0.231246568252E+04    0.50732E-03   -0.50933E-03  5331   0.285E-02    0.164E-01
RMM:   5    -0.231246546533E+04    0.21718E-03   -0.83316E-04  4667   0.168E-02    0.113E-01
RMM:   6    -0.231246554336E+04   -0.78025E-04   -0.65051E-04  4639   0.145E-02    0.145E-01
RMM:   7    -0.231246536073E+04    0.18263E-03   -0.21993E-04  3813   0.924E-03    0.388E-02
RMM:   8    -0.231246534491E+04    0.15818E-04   -0.41128E-05  2912   0.502E-03    0.129E-02
RMM:   9    -0.231246534326E+04    0.16549E-05   -0.10845E-05  2861   0.318E-03
  41 F= -.23332311E+04 E0= -.23332311E+04  d E =-.476038E-01  mag=     5.0000
       N       E                     dE             d eps       ncg     rms          rms(c)
DAV:   1    -0.231236028923E+04    0.10506E+00   -0.83428E+00  4432   0.245E+00    0.888E-01
RMM:   2    -0.231247961860E+04   -0.11933E+00   -0.12533E+00  6263   0.532E-01    0.648E-01
RMM:   3    -0.231249049084E+04   -0.10872E-01   -0.14263E-01  5984   0.198E-01    0.492E-01
RMM:   4    -0.231248913723E+04    0.13536E-02   -0.13695E-02  5763   0.446E-02    0.261E-01
RMM:   5    -0.231248861098E+04    0.52625E-03   -0.20710E-03  5233   0.253E-02    0.181E-01
RMM:   6    -0.231248865476E+04   -0.43783E-04   -0.14967E-03  5299   0.201E-02    0.193E-01
RMM:   7    -0.231248836745E+04    0.28731E-03   -0.58116E-04  4470   0.138E-02    0.788E-02
RMM:   8    -0.231248830934E+04    0.58107E-04   -0.86045E-05  2973   0.578E-03    0.219E-02
RMM:   9    -0.231248829957E+04    0.97733E-05   -0.25675E-05  2869   0.436E-03
  42 F= -.23332527E+04 E0= -.23332527E+04  d E =-.216092E-01  mag=     5.0000
       N       E                     dE             d eps       ncg     rms          rms(c)
DAV:   1    -0.231242414277E+04    0.64167E-01   -0.46427E+00  4448   0.183E+00    0.657E-01
RMM:   2    -0.231249039652E+04   -0.66254E-01   -0.69549E-01  6266   0.394E-01    0.468E-01
RMM:   3    -0.231249644010E+04   -0.60436E-02   -0.77290E-02  5947   0.146E-01    0.362E-01
RMM:   4    -0.231249572901E+04    0.71109E-03   -0.75802E-03  5567   0.330E-02    0.194E-01
RMM:   5    -0.231249540915E+04    0.31985E-03   -0.11392E-03  4994   0.191E-02    0.126E-01
RMM:   6    -0.231249542490E+04   -0.15746E-04   -0.75726E-04  5009   0.151E-02    0.131E-01
RMM:   7    -0.231249529787E+04    0.12702E-03   -0.29496E-04  3484   0.105E-02    0.628E-02
RMM:   8    -0.231249526268E+04    0.35191E-04   -0.47057E-05  2912   0.508E-03    0.158E-02
RMM:   9    -0.231249525731E+04    0.53693E-05   -0.15107E-05  2873   0.346E-03
  43 F= -.23332585E+04 E0= -.23332585E+04  d E =-.274470E-01  mag=     5.0000
       N       E                     dE             d eps       ncg     rms          rms(c)
DAV:   1    -0.231249357821E+04    0.16845E-02   -0.15654E+00  4528   0.120E+00    0.434E-01
RMM:   2    -0.231251084828E+04   -0.17270E-01   -0.18494E-01  5937   0.245E-01    0.277E-01
RMM:   3    -0.231251232468E+04   -0.14764E-02   -0.20803E-02  5716   0.964E-02    0.278E-01
RMM:   4    -0.231251150826E+04    0.81641E-03   -0.24299E-03  5452   0.251E-02    0.125E-01
RMM:   5    -0.231251148410E+04    0.24165E-04   -0.65518E-04  4750   0.156E-02    0.133E-01
RMM:   6    -0.231251133318E+04    0.15092E-03   -0.39420E-04  4561   0.123E-02    0.494E-02
RMM:   7    -0.231251131101E+04    0.22168E-04   -0.64986E-05  3272   0.798E-03    0.125E-02
RMM:   8    -0.231251130882E+04    0.21888E-05   -0.12726E-05  2887   0.451E-03
  44 F= -.23332736E+04 E0= -.23332736E+04  d E =-.150681E-01  mag=     5.0000
       N       E                     dE             d eps       ncg     rms          rms(c)
DAV:   1    -0.231249680663E+04    0.14504E-01   -0.18688E+00  4480   0.132E+00    0.473E-01
RMM:   2    -0.231251746866E+04   -0.20662E-01   -0.22129E-01  5968   0.269E-01    0.303E-01
RMM:   3    -0.231251922485E+04   -0.17562E-02   -0.24959E-02  5771   0.108E-01    0.304E-01
RMM:   4    -0.231251825911E+04    0.96574E-03   -0.29077E-03  5572   0.274E-02    0.138E-01
RMM:   5    -0.231251822910E+04    0.30005E-04   -0.78255E-04  4861   0.168E-02    0.147E-01
RMM:   6    -0.231251804144E+04    0.18766E-03   -0.47092E-04  4731   0.134E-02    0.533E-02
RMM:   7    -0.231251801494E+04    0.26507E-04   -0.82446E-05  3517   0.852E-03    0.139E-02
RMM:   8    -0.231251801153E+04    0.34106E-05   -0.14792E-05  2888   0.469E-03
  45 F= -.23332792E+04 E0= -.23332792E+04  d E =-.206712E-01  mag=     5.0000
       N       E                     dE             d eps       ncg     rms          rms(c)
DAV:   1    -0.231251427851E+04    0.37364E-02   -0.17944E+00  4472   0.131E+00    0.410E-01
RMM:   2    -0.231253191157E+04   -0.17633E-01   -0.18716E-01  5994   0.252E-01    0.277E-01
RMM:   3    -0.231253334056E+04   -0.14290E-02   -0.21381E-02  5765   0.975E-02    0.263E-01
RMM:   4    -0.231253264415E+04    0.69641E-03   -0.23592E-03  5353   0.240E-02    0.119E-01
RMM:   5    -0.231253262597E+04    0.18181E-04   -0.56632E-04  4481   0.139E-02    0.127E-01
RMM:   6    -0.231253248700E+04    0.13897E-03   -0.35211E-04  4444   0.118E-02    0.474E-02
RMM:   7    -0.231253247217E+04    0.14831E-04   -0.65335E-05  3237   0.791E-03    0.114E-02
RMM:   8    -0.231253247127E+04    0.90066E-06   -0.10537E-05  2880   0.443E-03
  46 F= -.23332929E+04 E0= -.23332929E+04  d E =-.136823E-01  mag=     5.0000
       N       E                     dE             d eps       ncg     rms          rms(c)
DAV:   1    -0.231249739409E+04    0.35078E-01   -0.43481E+00  4464   0.205E+00    0.637E-01
RMM:   2    -0.231254031036E+04   -0.42916E-01   -0.45555E-01  5952   0.393E-01    0.427E-01
RMM:   3    -0.231254377328E+04   -0.34629E-02   -0.52188E-02  5743   0.153E-01    0.403E-01
RMM:   4    -0.231254216440E+04    0.16089E-02   -0.57406E-03  5776   0.371E-02    0.193E-01
RMM:   5    -0.231254209919E+04    0.65215E-04   -0.13446E-03  4975   0.201E-02    0.199E-01
RMM:   6    -0.231254176236E+04    0.33682E-03   -0.88701E-04  5117   0.176E-02    0.744E-02
RMM:   7    -0.231254172159E+04    0.40770E-04   -0.16635E-04  4235   0.109E-02    0.186E-02
RMM:   8    -0.231254171750E+04    0.40963E-05   -0.19804E-05  2903   0.477E-03
  47 F= -.23333009E+04 E0= -.23333009E+04  d E =-.216971E-01  mag=     5.0000
       N       E                     dE             d eps       ncg     rms          rms(c)
DAV:   1    -0.231253070549E+04    0.11016E-01   -0.17491E+00  4528   0.136E+00    0.441E-01
RMM:   2    -0.231255100046E+04   -0.20295E-01   -0.21648E-01  5921   0.274E-01    0.251E-01
RMM:   3    -0.231255265238E+04   -0.16519E-02   -0.22363E-02  5649   0.103E-01    0.244E-01
RMM:   4    -0.231255223697E+04    0.41541E-03   -0.25540E-03  5325   0.243E-02    0.111E-01
RMM:   5    -0.231255218350E+04    0.53467E-04   -0.46982E-04  4644   0.152E-02    0.111E-01
RMM:   6    -0.231255211662E+04    0.66878E-04   -0.31334E-04  4172   0.113E-02    0.709E-02
RMM:   7    -0.231255207612E+04    0.40498E-04   -0.72646E-05  3479   0.765E-03    0.240E-02
RMM:   8    -0.231255207083E+04    0.52945E-05   -0.15210E-05  2881   0.504E-03
  48 F= -.23333107E+04 E0= -.23333107E+04  d E =-.984718E-02  mag=     5.0000
       N       E                     dE             d eps       ncg     rms          rms(c)
DAV:   1    -0.231253805839E+04    0.14018E-01   -0.13950E+00  4496   0.121E+00    0.394E-01
RMM:   2    -0.231255427223E+04   -0.16214E-01   -0.17284E-01  5952   0.245E-01    0.227E-01
RMM:   3    -0.231255559510E+04   -0.13229E-02   -0.17896E-02  5640   0.935E-02    0.222E-01
RMM:   4    -0.231255525007E+04    0.34503E-03   -0.20505E-03  5151   0.218E-02    0.998E-02
RMM:   5    -0.231255521579E+04    0.34278E-04   -0.38342E-04  4517   0.139E-02    0.105E-01
RMM:   6    -0.231255514376E+04    0.72030E-04   -0.25702E-04  3927   0.104E-02    0.589E-02
RMM:   7    -0.231255511513E+04    0.28633E-04   -0.59261E-05  3355   0.725E-03    0.218E-02
RMM:   8    -0.231255511033E+04    0.47932E-05   -0.13269E-05  2874   0.482E-03
  49 F= -.23333133E+04 E0= -.23333133E+04  d E =-.124357E-01  mag=     5.0000
       N       E                     dE             d eps       ncg     rms          rms(c)
DAV:   1    -0.231252873241E+04    0.26383E-01   -0.19445E+00  4472   0.139E+00    0.464E-01
RMM:   2    -0.231256040558E+04   -0.31673E-01   -0.33428E-01  6097   0.309E-01    0.280E-01
RMM:   3    -0.231256325992E+04   -0.28543E-02   -0.34302E-02  5728   0.120E-01    0.315E-01
RMM:   4    -0.231256284634E+04    0.41358E-03   -0.37131E-03  5355   0.254E-02    0.133E-01
RMM:   5    -0.231256277921E+04    0.67125E-04   -0.57587E-04  4680   0.136E-02    0.125E-01
RMM:   6    -0.231256263906E+04    0.14015E-03   -0.40725E-04  4389   0.123E-02    0.620E-02
RMM:   7    -0.231256260152E+04    0.37536E-04   -0.11501E-04  3970   0.854E-03    0.274E-02
RMM:   8    -0.231256259463E+04    0.68883E-05   -0.17877E-05  2881   0.545E-03
  50 F= -.23333203E+04 E0= -.23333203E+04  d E =-.699350E-02  mag=     5.0000
       N       E                     dE             d eps       ncg     rms          rms(c)
DAV:   1    -0.231255523053E+04    0.73710E-02   -0.47056E-01  4640   0.682E-01    0.228E-01
RMM:   2    -0.231256291535E+04   -0.76848E-02   -0.81126E-02  6115   0.152E-01    0.139E-01
RMM:   3    -0.231256360175E+04   -0.68640E-03   -0.82923E-03  5503   0.588E-02    0.157E-01
RMM:   4    -0.231256349460E+04    0.10716E-03   -0.89735E-04  3424   0.128E-02    0.656E-02
RMM:   5    -0.231256347878E+04    0.15819E-04   -0.14518E-04  3191   0.798E-03    0.627E-02
RMM:   6    -0.231256344120E+04    0.37573E-04   -0.10269E-04  3071   0.766E-03    0.298E-02
RMM:   7    -0.231256343244E+04    0.87597E-05   -0.33045E-05  2978   0.598E-03
  51 F= -.23333209E+04 E0= -.23333209E+04  d E =-.759463E-02  mag=     5.0000
       N       E                     dE             d eps       ncg     rms          rms(c)
DAV:   1    -0.231254668088E+04    0.16760E-01   -0.14129E+00  4480   0.121E+00    0.392E-01
RMM:   2    -0.231256713836E+04   -0.20457E-01   -0.21724E-01  5938   0.259E-01    0.187E-01
RMM:   3    -0.231256876484E+04   -0.16265E-02   -0.21517E-02  5477   0.106E-01    0.161E-01
RMM:   4    -0.231256885657E+04   -0.91726E-04   -0.24218E-03  4904   0.210E-02    0.134E-01
RMM:   5    -0.231256869631E+04    0.16026E-03   -0.36711E-04  4568   0.130E-02    0.792E-02
RMM:   6    -0.231256868911E+04    0.71962E-05   -0.27281E-04  4049   0.111E-02    0.661E-02
RMM:   7    -0.231256863516E+04    0.53956E-04   -0.74068E-05  3213   0.747E-03    0.159E-02
RMM:   8    -0.231256863156E+04    0.35932E-05   -0.11066E-05  2874   0.409E-03
  52 F= -.23333258E+04 E0= -.23333258E+04  d E =-.486219E-02  mag=     5.0000
       N       E                     dE             d eps       ncg     rms          rms(c)
DAV:   1    -0.231256590933E+04    0.27258E-02   -0.20140E-01  4640   0.458E-01    0.148E-01
RMM:   2    -0.231256882985E+04   -0.29205E-02   -0.31005E-02  6070   0.985E-02    0.720E-02
RMM:   3    -0.231256906235E+04   -0.23250E-03   -0.30689E-03  4740   0.385E-02    0.657E-02
RMM:   4    -0.231256906609E+04   -0.37306E-05   -0.34577E-04  3034   0.847E-03    0.484E-02
RMM:   5    -0.231256904523E+04    0.20855E-04   -0.53389E-05  2976   0.578E-03    0.328E-02
RMM:   6    -0.231256904162E+04    0.36083E-05   -0.44017E-05  2889   0.570E-03
  53 F= -.23333261E+04 E0= -.23333261E+04  d E =-.514818E-02  mag=     5.0000
       N       E                     dE             d eps       ncg     rms          rms(c)
DAV:   1    -0.231256090728E+04    0.81379E-02   -0.12406E+00  4480   0.118E+00    0.339E-01
RMM:   2    -0.231257292112E+04   -0.12014E-01   -0.12795E-01  5770   0.218E-01    0.191E-01
RMM:   3    -0.231257391170E+04   -0.99058E-03   -0.13243E-02  5383   0.848E-02    0.208E-01
RMM:   4    -0.231257365211E+04    0.25959E-03   -0.15391E-03  4920   0.193E-02    0.100E-01
RMM:   5    -0.231257352599E+04    0.12612E-03   -0.32156E-04  4349   0.137E-02    0.443E-02
RMM:   6    -0.231257352121E+04    0.47823E-05   -0.13945E-04  4179   0.101E-02    0.347E-02
RMM:   7    -0.231257351111E+04    0.10094E-04   -0.39078E-05  2894   0.613E-03    0.204E-02
RMM:   8    -0.231257350660E+04    0.45085E-05   -0.84655E-06  2866   0.327E-03
  54 F= -.23333300E+04 E0= -.23333300E+04  d E =-.397838E-02  mag=     5.0000
       N       E                     dE             d eps       ncg     rms          rms(c)
DAV:   1    -0.231257249206E+04    0.10190E-02   -0.13451E-01  4656   0.388E-01    0.112E-01
RMM:   2    -0.231257380677E+04   -0.13147E-02   -0.13941E-02  5845   0.723E-02    0.676E-02
RMM:   3    -0.231257391549E+04   -0.10872E-03   -0.14497E-03  4188   0.290E-02    0.737E-02
RMM:   4    -0.231257388070E+04    0.34795E-04   -0.16760E-04  2961   0.733E-03    0.324E-02
RMM:   5    -0.231257386737E+04    0.13323E-04   -0.37692E-05  2886   0.542E-03    0.170E-02
RMM:   6    -0.231257386755E+04   -0.17710E-06   -0.22175E-05  2913   0.501E-03
  55 F= -.23333303E+04 E0= -.23333303E+04  d E =-.418053E-02  mag=     5.0000
       N       E                     dE             d eps       ncg     rms          rms(c)
DAV:   1    -0.231256777455E+04    0.60928E-02   -0.13366E+00  4480   0.125E+00    0.319E-01
RMM:   2    -0.231257764484E+04   -0.98703E-02   -0.10282E-01  5577   0.213E-01    0.255E-01
RMM:   3    -0.231257812203E+04   -0.47720E-03   -0.98739E-03  5238   0.844E-02    0.258E-01
RMM:   4    -0.231257756079E+04    0.56125E-03   -0.12111E-03  5147   0.201E-02    0.860E-02
RMM:   5    -0.231257745483E+04    0.10595E-03   -0.38157E-04  4657   0.147E-02    0.552E-02
RMM:   6    -0.231257745207E+04    0.27638E-05   -0.19354E-04  4252   0.107E-02    0.552E-02
RMM:   7    -0.231257741785E+04    0.34224E-04   -0.43331E-05  2953   0.633E-03    0.117E-02
RMM:   8    -0.231257741609E+04    0.17577E-05   -0.98556E-06  2888   0.363E-03
  56 F= -.23333333E+04 E0= -.23333333E+04  d E =-.304521E-02  mag=     5.0000
       N       E                     dE             d eps       ncg     rms          rms(c)
DAV:   1    -0.231257721123E+04    0.20661E-03   -0.47242E-02  4880   0.234E-01    0.602E-02
RMM:   2    -0.231257756777E+04   -0.35653E-03   -0.36862E-03  5907   0.415E-02    0.510E-02
RMM:   3    -0.231257758115E+04   -0.13378E-04   -0.34723E-04  3353   0.152E-02    0.483E-02
RMM:   4    -0.231257756138E+04    0.19764E-04   -0.42923E-05  2902   0.492E-03    0.163E-02
RMM:   5    -0.231257755659E+04    0.47879E-05   -0.15023E-05  2880   0.355E-03
  57 F= -.23333333E+04 E0= -.23333333E+04  d E =-.309145E-02  mag=     5.0000
       N       E                     dE             d eps       ncg     rms          rms(c)
DAV:   1    -0.231257172932E+04    0.58321E-02   -0.11217E+00  4480   0.117E+00    0.298E-01
RMM:   2    -0.231258052624E+04   -0.87969E-02   -0.89341E-02  5772   0.210E-01    0.278E-01
RMM:   3    -0.231258057552E+04   -0.49281E-04   -0.84533E-03  5327   0.770E-02    0.215E-01
RMM:   4    -0.231258013365E+04    0.44187E-03   -0.99337E-04  5035   0.189E-02    0.858E-02
RMM:   5    -0.231258011485E+04    0.18801E-04   -0.29306E-04  4094   0.125E-02    0.884E-02
RMM:   6    -0.231258001988E+04    0.94965E-04   -0.23329E-04  4439   0.111E-02    0.295E-02
RMM:   7    -0.231258001586E+04    0.40271E-05   -0.29073E-05  2916   0.759E-03
  58 F= -.23333356E+04 E0= -.23333356E+04  d E =-.226073E-02  mag=     5.0000
       N       E                     dE             d eps       ncg     rms          rms(c)
DAV:   1    -0.231257725458E+04    0.27653E-02   -0.36591E-01  4496   0.666E-01    0.171E-01
RMM:   2    -0.231258015101E+04   -0.28964E-02   -0.29391E-02  5782   0.121E-01    0.162E-01
RMM:   3    -0.231258017247E+04   -0.21467E-04   -0.27870E-03  5055   0.433E-02    0.127E-01
RMM:   4    -0.231258002511E+04    0.14736E-03   -0.32854E-04  3943   0.110E-02    0.490E-02
RMM:   5    -0.231258001840E+04    0.67092E-05   -0.91039E-05  2983   0.766E-03
  59 F= -.23333355E+04 E0= -.23333355E+04  d E =-.214899E-02  mag=     5.0000
       N       E                     dE             d eps       ncg     rms          rms(c)
DAV:   1    -0.231257948928E+04    0.53583E-03   -0.83714E-02  4592   0.319E-01    0.837E-02
RMM:   2    -0.231258018022E+04   -0.69095E-03   -0.67646E-03  6030   0.605E-02    0.925E-02
RMM:   3    -0.231258016511E+04    0.15116E-04   -0.65037E-04  3725   0.205E-02    0.595E-02
RMM:   4    -0.231258013310E+04    0.32011E-04   -0.66891E-05  2917   0.628E-03    0.209E-02
RMM:   5    -0.231258013088E+04    0.22186E-05   -0.19387E-05  2883   0.397E-03
  60 F= -.23333357E+04 E0= -.23333357E+04  d E =-.231534E-02  mag=     5.0000
       N       E                     dE             d eps       ncg     rms          rms(c)
DAV:   1    -0.231257494747E+04    0.51856E-02   -0.77221E-01  4480   0.958E-01    0.235E-01
RMM:   2    -0.231258231326E+04   -0.73658E-02   -0.73653E-02  5877   0.180E-01    0.257E-01
RMM:   3    -0.231258222470E+04    0.88564E-04   -0.68937E-03  5373   0.654E-02    0.155E-01
RMM:   4    -0.231258202266E+04    0.20203E-03   -0.75424E-04  4560   0.148E-02    0.771E-02
RMM:   5    -0.231258199326E+04    0.29409E-04   -0.15165E-04  3092   0.897E-03    0.658E-02
RMM:   6    -0.231258193370E+04    0.59551E-04   -0.16813E-04  4169   0.997E-03    0.262E-02
RMM:   7    -0.231258193095E+04    0.27518E-05   -0.31736E-05  2921   0.773E-03
  61 F= -.23333375E+04 E0= -.23333375E+04  d E =-.184958E-02  mag=     5.0000
       N       E                     dE             d eps       ncg     rms          rms(c)
DAV:   1    -0.231257523554E+04    0.66982E-02   -0.76900E-01  4480   0.957E-01    0.235E-01
RMM:   2    -0.231258256425E+04   -0.73287E-02   -0.73611E-02  5887   0.179E-01    0.251E-01
RMM:   3    -0.231258251044E+04    0.53814E-04   -0.69314E-03  5322   0.658E-02    0.155E-01
RMM:   4    -0.231258230402E+04    0.20642E-03   -0.75060E-04  4576   0.149E-02    0.764E-02
RMM:   5    -0.231258228019E+04    0.23829E-04   -0.15788E-04  3089   0.912E-03    0.680E-02
RMM:   6    -0.231258222034E+04    0.59849E-04   -0.16841E-04  4168   0.998E-03    0.267E-02
RMM:   7    -0.231258221737E+04    0.29718E-05   -0.29981E-05  2920   0.773E-03
  62 F= -.23333378E+04 E0= -.23333378E+04  d E =-.218458E-02  mag=     5.0000
       N       E                     dE             d eps       ncg     rms          rms(c)
DAV:   1    -0.231257499741E+04    0.72229E-02   -0.10775E+00  4464   0.113E+00    0.280E-01
RMM:   2    -0.231258446724E+04   -0.94698E-02   -0.94175E-02  5795   0.210E-01    0.311E-01
RMM:   3    -0.231258424138E+04    0.22585E-03   -0.86235E-03  5346   0.786E-02    0.185E-01
RMM:   4    -0.231258394633E+04    0.29505E-03   -0.96718E-04  4852   0.177E-02    0.858E-02
RMM:   5    -0.231258392088E+04    0.25457E-04   -0.23432E-04  3530   0.111E-02    0.804E-02
RMM:   6    -0.231258383999E+04    0.80888E-04   -0.22051E-04  4338   0.114E-02    0.332E-02
RMM:   7    -0.231258383520E+04    0.47892E-05   -0.38444E-05  2932   0.849E-03
  63 F= -.23333397E+04 E0= -.23333397E+04  d E =-.189032E-02  mag=     5.0000
       N       E                     dE             d eps       ncg     rms          rms(c)
DAV:   1    -0.231258105827E+04    0.27817E-02   -0.33700E-01  4512   0.632E-01    0.157E-01
RMM:   2    -0.231258402111E+04   -0.29628E-02   -0.29484E-02  5825   0.118E-01    0.173E-01
RMM:   3    -0.231258395447E+04    0.66641E-04   -0.27173E-03  5078   0.431E-02    0.105E-01
RMM:   4    -0.231258386148E+04    0.92992E-04   -0.30476E-04  3488   0.101E-02    0.491E-02
RMM:   5    -0.231258385263E+04    0.88489E-05   -0.73205E-05  2943   0.677E-03
  64 F= -.23333399E+04 E0= -.23333399E+04  d E =-.206037E-02  mag=     5.0000
       N       E                     dE             d eps       ncg     rms          rms(c)
DAV:   1    -0.231257791041E+04    0.59511E-02   -0.11094E+00  4464   0.113E+00    0.263E-01
RMM:   2    -0.231258652647E+04   -0.86161E-02   -0.85903E-02  5734   0.202E-01    0.299E-01
RMM:   3    -0.231258640518E+04    0.12130E-03   -0.77897E-03  5266   0.817E-02    0.181E-01
RMM:   4    -0.231258612382E+04    0.28136E-03   -0.90638E-04  4849   0.173E-02    0.702E-02
RMM:   5    -0.231258606972E+04    0.54096E-04   -0.22931E-04  4323   0.126E-02    0.558E-02
RMM:   6    -0.231258605757E+04    0.12157E-04   -0.16102E-04  3847   0.967E-03    0.496E-02
RMM:   7    -0.231258603622E+04    0.21347E-04   -0.34491E-05  2894   0.620E-03    0.923E-03
RMM:   8    -0.231258603570E+04    0.52385E-06   -0.65515E-06  2863   0.330E-03
  65 F= -.23333421E+04 E0= -.23333421E+04  d E =-.222689E-02  mag=     5.0000
       N       E                     dE             d eps       ncg     rms          rms(c)
DAV:   1    -0.231258190367E+04    0.41325E-02   -0.63037E-01  4480   0.849E-01    0.202E-01
RMM:   2    -0.231258695370E+04   -0.50500E-02   -0.49227E-02  5816   0.154E-01    0.257E-01
RMM:   3    -0.231258671851E+04    0.23519E-03   -0.44068E-03  5275   0.550E-02    0.130E-01
RMM:   4    -0.231258657583E+04    0.14268E-03   -0.51977E-04  4431   0.128E-02    0.536E-02
RMM:   5    -0.231258656176E+04    0.14064E-04   -0.12427E-04  3639   0.911E-03    0.569E-02
RMM:   6    -0.231258652830E+04    0.33464E-04   -0.10835E-04  3584   0.830E-03    0.327E-02
RMM:   7    -0.231258652122E+04    0.70844E-05   -0.25311E-05  2905   0.595E-03
  66 F= -.23333426E+04 E0= -.23333426E+04  d E =-.274604E-02  mag=     5.0000
       N       E                     dE             d eps       ncg     rms          rms(c)
DAV:   1    -0.231258083406E+04    0.56942E-02   -0.96808E-01  4432   0.104E+00    0.256E-01
RMM:   2    -0.231258936665E+04   -0.85326E-02   -0.83733E-02  5816   0.192E-01    0.326E-01
RMM:   3    -0.231258913011E+04    0.23653E-03   -0.78944E-03  5406   0.719E-02    0.166E-01
RMM:   4    -0.231258891096E+04    0.21915E-03   -0.86882E-04  4759   0.157E-02    0.657E-02
RMM:   5    -0.231258884673E+04    0.64231E-04   -0.17518E-04  4263   0.112E-02    0.494E-02
RMM:   6    -0.231258884672E+04    0.48312E-08   -0.13733E-04  3660   0.956E-03    0.427E-02
RMM:   7    -0.231258882617E+04    0.20557E-04   -0.31756E-05  2895   0.591E-03    0.921E-03
RMM:   8    -0.231258882537E+04    0.79937E-06   -0.49010E-06  2848   0.287E-03
  67 F= -.23333449E+04 E0= -.23333449E+04  d E =-.228291E-02  mag=     5.0000
       N       E                     dE             d eps       ncg     rms          rms(c)
DAV:   1    -0.231258360173E+04    0.52244E-02   -0.71647E-01  4440   0.893E-01    0.221E-01
RMM:   2    -0.231258995657E+04   -0.63548E-02   -0.62002E-02  5811   0.165E-01    0.290E-01
RMM:   3    -0.231258972354E+04    0.23303E-03   -0.58392E-03  5357   0.610E-02    0.140E-01
RMM:   4    -0.231258956554E+04    0.15800E-03   -0.64392E-04  4551   0.135E-02    0.566E-02
RMM:   5    -0.231258951647E+04    0.49070E-04   -0.13071E-04  4099   0.988E-03    0.441E-02
RMM:   6    -0.231258951349E+04    0.29779E-05   -0.10083E-04  3325   0.857E-03    0.349E-02
RMM:   7    -0.231258949982E+04    0.13664E-04   -0.24017E-05  2883   0.563E-03    0.847E-03
RMM:   8    -0.231258949909E+04    0.73606E-06   -0.39541E-06  2842   0.265E-03
  68 F= -.23333456E+04 E0= -.23333456E+04  d E =-.293940E-02  mag=     5.0000
       N       E                     dE             d eps       ncg     rms          rms(c)
DAV:   1    -0.231258251807E+04    0.69817E-02   -0.94136E-01  4464   0.102E+00    0.274E-01
RMM:   2    -0.231259151267E+04   -0.89946E-02   -0.89427E-02  5821   0.194E-01    0.326E-01
RMM:   3    -0.231259134237E+04    0.17030E-03   -0.80911E-03  5437   0.709E-02    0.182E-01
RMM:   4    -0.231259106867E+04    0.27370E-03   -0.94786E-04  4774   0.166E-02    0.664E-02
RMM:   5    -0.231259099210E+04    0.76573E-04   -0.19226E-04  4296   0.118E-02    0.429E-02
RMM:   6    -0.231259099559E+04   -0.34965E-05   -0.10791E-04  3693   0.890E-03    0.353E-02
RMM:   7    -0.231259098040E+04    0.15196E-04   -0.28740E-05  2888   0.591E-03    0.101E-02
RMM:   8    -0.231259097932E+04    0.10810E-05   -0.45049E-06  2848   0.280E-03
  69 F= -.23333472E+04 E0= -.23333472E+04  d E =-.163194E-02  mag=     5.0000
       N       E                     dE             d eps       ncg     rms          rms(c)
DAV:   1    -0.231258899059E+04    0.19898E-02   -0.22258E-01  4576   0.498E-01    0.134E-01
RMM:   2    -0.231259112863E+04   -0.21380E-02   -0.21187E-02  5835   0.944E-02    0.162E-01
RMM:   3    -0.231259107865E+04    0.49986E-04   -0.19246E-03  4702   0.341E-02    0.879E-02
RMM:   4    -0.231259101411E+04    0.64534E-04   -0.22149E-04  3143   0.852E-03    0.325E-02
RMM:   5    -0.231259099551E+04    0.18605E-04   -0.47085E-05  3150   0.642E-03    0.213E-02
RMM:   6    -0.231259099528E+04    0.22611E-06   -0.26642E-05  2897   0.583E-03
  70 F= -.23333473E+04 E0= -.23333473E+04  d E =-.172150E-02  mag=     5.0000
       N       E                     dE             d eps       ncg     rms          rms(c)
DAV:   1    -0.231258165330E+04    0.93422E-02   -0.93111E-01  4464   0.101E+00    0.264E-01
RMM:   2    -0.231259252648E+04   -0.10873E-01   -0.10957E-01  5877   0.196E-01    0.323E-01
RMM:   3    -0.231259252999E+04   -0.35140E-05   -0.98838E-03  5504   0.698E-02    0.169E-01
RMM:   4    -0.231259232192E+04    0.20807E-03   -0.10768E-03  4540   0.156E-02    0.704E-02
RMM:   5    -0.231259227019E+04    0.51731E-04   -0.18174E-04  3970   0.996E-03    0.635E-02
RMM:   6    -0.231259224542E+04    0.24771E-04   -0.13981E-04  3363   0.840E-03    0.387E-02
RMM:   7    -0.231259223014E+04    0.15282E-04   -0.42899E-05  2944   0.662E-03    0.921E-03
RMM:   8    -0.231259222967E+04    0.46812E-06   -0.67511E-06  2854   0.409E-03
  71 F= -.23333487E+04 E0= -.23333487E+04  d E =-.138851E-02  mag=     5.0000
       N       E                     dE             d eps       ncg     rms          rms(c)
DAV:   1    -0.231258212398E+04    0.10106E-01   -0.91302E-01  4464   0.996E-01    0.261E-01
RMM:   2    -0.231259280153E+04   -0.10678E-01   -0.10735E-01  5940   0.195E-01    0.323E-01
RMM:   3    -0.231259277926E+04    0.22265E-04   -0.95749E-03  5519   0.690E-02    0.165E-01
RMM:   4    -0.231259257797E+04    0.20129E-03   -0.10519E-03  4510   0.155E-02    0.693E-02
RMM:   5    -0.231259251744E+04    0.60537E-04   -0.17927E-04  4014   0.101E-02    0.575E-02
RMM:   6    -0.231259250686E+04    0.10581E-04   -0.13341E-04  3338   0.835E-03    0.422E-02
RMM:   7    -0.231259248690E+04    0.19961E-04   -0.43735E-05  2923   0.651E-03    0.936E-03
RMM:   8    -0.231259248622E+04    0.67751E-06   -0.68927E-06  2858   0.389E-03
  72 F= -.23333491E+04 E0= -.23333491E+04  d E =-.179734E-02  mag=     5.0000
       N       E                     dE             d eps       ncg     rms          rms(c)
DAV:   1    -0.231257867614E+04    0.13811E-01   -0.11000E+00  4464   0.108E+00    0.323E-01
RMM:   2    -0.231259388883E+04   -0.15213E-01   -0.15533E-01  5913   0.224E-01    0.358E-01
RMM:   3    -0.231259420792E+04   -0.31909E-03   -0.14558E-02  5630   0.811E-02    0.217E-01
RMM:   4    -0.231259385250E+04    0.35543E-03   -0.15515E-03  4853   0.186E-02    0.826E-02
RMM:   5    -0.231259377573E+04    0.76767E-04   -0.26836E-04  4365   0.118E-02    0.683E-02
RMM:   6    -0.231259374951E+04    0.26225E-04   -0.19689E-04  3863   0.931E-03    0.450E-02
RMM:   7    -0.231259372680E+04    0.22703E-04   -0.50248E-05  3013   0.692E-03    0.122E-02
RMM:   8    -0.231259372565E+04    0.11540E-05   -0.86653E-06  2880   0.403E-03
  73 F= -.23333506E+04 E0= -.23333506E+04  d E =-.151546E-02  mag=     5.0000
       N       E                     dE             d eps       ncg     rms          rms(c)
DAV:   1    -0.231259175898E+04    0.19678E-02   -0.13626E-01  4608   0.381E-01    0.113E-01
RMM:   2    -0.231259363958E+04   -0.18806E-02   -0.19276E-02  6077   0.796E-02    0.121E-01
RMM:   3    -0.231259369109E+04   -0.51519E-04   -0.17696E-03  4163   0.272E-02    0.782E-02
RMM:   4    -0.231259364438E+04    0.46711E-04   -0.19091E-04  2988   0.754E-03    0.292E-02
RMM:   5    -0.231259363197E+04    0.12411E-04   -0.35107E-05  2918   0.514E-03    0.191E-02
RMM:   6    -0.231259363302E+04   -0.10490E-05   -0.25198E-05  2902   0.486E-03
  74 F= -.23333506E+04 E0= -.23333506E+04  d E =-.152017E-02  mag=     5.0000
       N       E                     dE             d eps       ncg     rms          rms(c)
DAV:   1    -0.231257987648E+04    0.13755E-01   -0.92597E-01  4464   0.965E-01    0.289E-01
RMM:   2    -0.231259443965E+04   -0.14563E-01   -0.14924E-01  6052   0.205E-01    0.328E-01
RMM:   3    -0.231259495517E+04   -0.51552E-03   -0.14765E-02  5622   0.749E-02    0.192E-01
RMM:   4    -0.231259473367E+04    0.22150E-03   -0.15159E-03  4368   0.164E-02    0.798E-02
RMM:   5    -0.231259468410E+04    0.49570E-04   -0.19893E-04  3631   0.933E-03    0.729E-02
RMM:   6    -0.231259463472E+04    0.49377E-04   -0.17436E-04  3529   0.880E-03    0.374E-02
RMM:   7    -0.231259462278E+04    0.11938E-04   -0.56005E-05  3061   0.680E-03    0.117E-02
RMM:   8    -0.231259462196E+04    0.82451E-06   -0.80409E-06  2877   0.450E-03
  75 F= -.23333520E+04 E0= -.23333520E+04  d E =-.132572E-02  mag=     5.0000
       N       E                     dE             d eps       ncg     rms          rms(c)
DAV:   1    -0.231258595741E+04    0.86654E-02   -0.54101E-01  4464   0.737E-01    0.220E-01
RMM:   2    -0.231259449648E+04   -0.85391E-02   -0.87312E-02  6060   0.157E-01    0.253E-01
RMM:   3    -0.231259476689E+04   -0.27040E-03   -0.83989E-03  5536   0.556E-02    0.146E-01
RMM:   4    -0.231259463678E+04    0.13011E-03   -0.87618E-04  3497   0.126E-02    0.602E-02
RMM:   5    -0.231259460216E+04    0.34617E-04   -0.11339E-04  3209   0.768E-03    0.520E-02
RMM:   6    -0.231259458166E+04    0.20499E-04   -0.10011E-04  3066   0.734E-03    0.315E-02
RMM:   7    -0.231259457227E+04    0.93930E-05   -0.35778E-05  2946   0.603E-03
  76 F= -.23333522E+04 E0= -.23333522E+04  d E =-.153342E-02  mag=     5.0000
       N       E                     dE             d eps       ncg     rms          rms(c)
DAV:   1    -0.231258021817E+04    0.14363E-01   -0.97469E-01  4480   0.992E-01    0.311E-01
RMM:   2    -0.231259568679E+04   -0.15469E-01   -0.15851E-01  6089   0.213E-01    0.353E-01
RMM:   3    -0.231259614594E+04   -0.45915E-03   -0.15456E-02  5672   0.818E-02    0.205E-01
RMM:   4    -0.231259588609E+04    0.25985E-03   -0.16354E-03  4799   0.179E-02    0.831E-02
RMM:   5    -0.231259581828E+04    0.67813E-04   -0.24219E-04  4170   0.109E-02    0.703E-02
RMM:   6    -0.231259578222E+04    0.36059E-04   -0.18979E-04  3741   0.908E-03    0.455E-02
RMM:   7    -0.231259575958E+04    0.22637E-04   -0.58313E-05  3072   0.711E-03    0.116E-02
RMM:   8    -0.231259575843E+04    0.11519E-05   -0.91738E-06  2872   0.440E-03
  77 F= -.23333536E+04 E0= -.23333536E+04  d E =-.148965E-02  mag=     5.0000
       N       E                     dE             d eps       ncg     rms          rms(c)
DAV:   1    -0.231259454516E+04    0.12144E-02   -0.73556E-02  4624   0.272E-01    0.850E-02
RMM:   2    -0.231259571191E+04   -0.11667E-02   -0.12000E-02  6222   0.593E-02    0.927E-02
RMM:   3    -0.231259575422E+04   -0.42304E-04   -0.11380E-03  3529   0.202E-02    0.580E-02
RMM:   4    -0.231259573307E+04    0.21150E-04   -0.12331E-04  2942   0.608E-03    0.232E-02
RMM:   5    -0.231259572681E+04    0.62558E-05   -0.20241E-05  2891   0.383E-03
  78 F= -.23333537E+04 E0= -.23333537E+04  d E =-.154121E-02  mag=     5.0000
       N       E                     dE             d eps       ncg     rms          rms(c)
DAV:   1    -0.231258612089E+04    0.96122E-02   -0.72717E-01  4432   0.857E-01    0.264E-01
RMM:   2    -0.231259672736E+04   -0.10606E-01   -0.10872E-01  6095   0.179E-01    0.288E-01
RMM:   3    -0.231259708734E+04   -0.35997E-03   -0.10672E-02  5733   0.633E-02    0.175E-01
RMM:   4    -0.231259688904E+04    0.19829E-03   -0.11370E-03  4538   0.150E-02    0.730E-02
RMM:   5    -0.231259683105E+04    0.57996E-04   -0.20931E-04  4001   0.102E-02    0.591E-02
RMM:   6    -0.231259680815E+04    0.22899E-04   -0.15028E-04  3537   0.832E-03    0.447E-02
RMM:   7    -0.231259678688E+04    0.21265E-04   -0.45931E-05  2954   0.669E-03    0.944E-03
RMM:   8    -0.231259678640E+04    0.48819E-06   -0.83566E-06  2869   0.409E-03
  79 F= -.23333550E+04 E0= -.23333550E+04  d E =-.125787E-02  mag=     5.0000
       N       E                     dE             d eps       ncg     rms          rms(c)
DAV:   1    -0.231259435928E+04    0.24276E-02   -0.15613E-01  4448   0.397E-01    0.123E-01
RMM:   2    -0.231259663854E+04   -0.22793E-02   -0.23392E-02  6162   0.835E-02    0.131E-01
RMM:   3    -0.231259672725E+04   -0.88710E-04   -0.22858E-03  4398   0.288E-02    0.840E-02
RMM:   4    -0.231259668077E+04    0.46474E-04   -0.24335E-04  3005   0.773E-03    0.335E-02
RMM:   5    -0.231259666701E+04    0.13761E-04   -0.43308E-05  2927   0.542E-03    0.261E-02
RMM:   6    -0.231259666333E+04    0.36808E-05   -0.34215E-05  2921   0.517E-03
  80 F= -.23333549E+04 E0= -.23333549E+04  d E =-.122663E-02  mag=     5.0000
       N       E                     dE             d eps       ncg     rms          rms(c)
DAV:   1    -0.231258899400E+04    0.76730E-02   -0.59117E-01  4432   0.764E-01    0.227E-01
RMM:   2    -0.231259724529E+04   -0.82513E-02   -0.84599E-02  6036   0.155E-01    0.244E-01
RMM:   3    -0.231259760987E+04   -0.36458E-03   -0.86093E-03  5460   0.589E-02    0.155E-01
RMM:   4    -0.231259746666E+04    0.14321E-03   -0.90850E-04  3890   0.130E-02    0.632E-02
RMM:   5    -0.231259743157E+04    0.35090E-04   -0.13992E-04  3297   0.826E-03    0.556E-02
RMM:   6    -0.231259740227E+04    0.29301E-04   -0.11694E-04  3291   0.767E-03    0.335E-02
RMM:   7    -0.231259739183E+04    0.10442E-04   -0.39294E-05  2952   0.618E-03    0.917E-03
RMM:   8    -0.231259739167E+04    0.15390E-06   -0.69869E-06  2856   0.409E-03
  81 F= -.23333559E+04 E0= -.23333559E+04  d E =-.922537E-03  mag=     5.0000
       N       E                     dE             d eps       ncg     rms          rms(c)
DAV:   1    -0.231259320634E+04    0.41855E-02   -0.29521E-01  4440   0.540E-01    0.160E-01
RMM:   2    -0.231259734780E+04   -0.41415E-02   -0.42351E-02  6110   0.110E-01    0.175E-01
RMM:   3    -0.231259751746E+04   -0.16965E-03   -0.42139E-03  5104   0.391E-02    0.109E-01
RMM:   4    -0.231259744591E+04    0.71548E-04   -0.44739E-04  3164   0.931E-03    0.442E-02
RMM:   5    -0.231259742461E+04    0.21296E-04   -0.69220E-05  2992   0.625E-03    0.363E-02
RMM:   6    -0.231259741528E+04    0.93296E-05   -0.58321E-05  3011   0.596E-03
  82 F= -.23333560E+04 E0= -.23333560E+04  d E =-.108302E-02  mag=     5.0000
       N       E                     dE             d eps       ncg     rms          rms(c)
DAV:   1    -0.231259476580E+04    0.26588E-02   -0.27359E-01  4480   0.543E-01    0.187E-01
RMM:   2    -0.231259807685E+04   -0.33111E-02   -0.35356E-02  5898   0.111E-01    0.139E-01
RMM:   3    -0.231259833203E+04   -0.25517E-03   -0.36290E-03  5395   0.436E-02    0.141E-01
RMM:   4    -0.231259817877E+04    0.15325E-03   -0.42420E-04  3682   0.113E-02    0.481E-02
RMM:   5    -0.231259815472E+04    0.24050E-04   -0.11039E-04  3533   0.850E-03    0.340E-02
RMM:   6    -0.231259814964E+04    0.50840E-05   -0.65659E-05  3029   0.695E-03
  83 F= -.23333569E+04 E0= -.23333569E+04  d E =-.920027E-03  mag=     5.0000
       N       E                     dE             d eps       ncg     rms          rms(c)
DAV:   1    -0.231259782962E+04    0.32510E-03   -0.17737E-02  5144   0.139E-01    0.480E-02
RMM:   2    -0.231259804627E+04   -0.21665E-03   -0.23773E-03  6120   0.310E-02    0.237E-02
RMM:   3    -0.231259806293E+04   -0.16659E-04   -0.24210E-04  2998   0.112E-02    0.203E-02
RMM:   4    -0.231259806228E+04    0.64500E-06   -0.28735E-05  2912   0.360E-03
  84 F= -.23333569E+04 E0= -.23333569E+04  d E =-.880294E-03  mag=     5.0000
       N       E                     dE             d eps       ncg     rms          rms(c)
DAV:   1    -0.231259803956E+04    0.23361E-04   -0.64386E-03  4656   0.831E-02    0.280E-02
RMM:   2    -0.231259811485E+04   -0.75285E-04   -0.82198E-04  5640   0.179E-02    0.114E-02
RMM:   3    -0.231259812138E+04   -0.65292E-05   -0.87092E-05  2871   0.792E-03
  85 F= -.23333569E+04 E0= -.23333569E+04  d E =-.911395E-03  mag=     5.0000
       N       E                     dE             d eps       ncg     rms          rms(c)
DAV:   1    -0.231259645111E+04    0.16637E-02   -0.15937E-01  4472   0.416E-01    0.134E-01
RMM:   2    -0.231259842594E+04   -0.19748E-02   -0.20962E-02  5885   0.837E-02    0.947E-02
RMM:   3    -0.231259858640E+04   -0.16046E-03   -0.21082E-03  4590   0.334E-02    0.957E-02
RMM:   4    -0.231259851634E+04    0.70062E-04   -0.22464E-04  3020   0.840E-03    0.344E-02
RMM:   5    -0.231259850073E+04    0.15606E-04   -0.48276E-05  2909   0.596E-03    0.165E-02
RMM:   6    -0.231259849926E+04    0.14672E-05   -0.24304E-05  2959   0.529E-03
  86 F= -.23333575E+04 E0= -.23333575E+04  d E =-.617049E-03  mag=     5.0000
       N       E                     dE             d eps       ncg     rms          rms(c)
DAV:   1    -0.231259756404E+04    0.93669E-03   -0.63804E-02  4496   0.264E-01    0.865E-02
RMM:   2    -0.231259838042E+04   -0.81638E-03   -0.85700E-03  6117   0.547E-02    0.683E-02
RMM:   3    -0.231259844207E+04   -0.61655E-04   -0.88201E-04  3641   0.196E-02    0.644E-02
RMM:   4    -0.231259840983E+04    0.32242E-04   -0.93974E-05  2930   0.603E-03    0.219E-02
RMM:   5    -0.231259840357E+04    0.62592E-05   -0.22697E-05  2895   0.413E-03
  87 F= -.23333576E+04 E0= -.23333576E+04  d E =-.673087E-03  mag=     5.0000
       N       E                     dE             d eps       ncg     rms          rms(c)
DAV:   1    -0.231259688145E+04    0.15284E-02   -0.17693E-01  4456   0.446E-01    0.127E-01
RMM:   2    -0.231259883689E+04   -0.19554E-02   -0.20227E-02  5996   0.874E-02    0.110E-01
RMM:   3    -0.231259893723E+04   -0.10034E-03   -0.18877E-03  4684   0.313E-02    0.952E-02
RMM:   4    -0.231259886435E+04    0.72882E-04   -0.20797E-04  3015   0.837E-03    0.330E-02
RMM:   5    -0.231259884789E+04    0.16459E-04   -0.47157E-05  2996   0.608E-03    0.151E-02
RMM:   6    -0.231259884740E+04    0.49511E-06   -0.21408E-05  2920   0.539E-03
  88 F= -.23333582E+04 E0= -.23333582E+04  d E =-.642720E-03  mag=     5.0000
       N       E                     dE             d eps       ncg     rms          rms(c)
DAV:   1    -0.231259697936E+04    0.18685E-02   -0.16309E-01  4456   0.428E-01    0.122E-01
RMM:   2    -0.231259878829E+04   -0.18089E-02   -0.18645E-02  6017   0.843E-02    0.110E-01
RMM:   3    -0.231259887855E+04   -0.90254E-04   -0.17627E-03  4576   0.301E-02    0.916E-02
RMM:   4    -0.231259881115E+04    0.67399E-04   -0.19104E-04  2991   0.814E-03    0.315E-02
RMM:   5    -0.231259879647E+04    0.14678E-04   -0.43400E-05  2982   0.585E-03    0.155E-02
RMM:   6    -0.231259879736E+04   -0.88377E-06   -0.23278E-05  2898   0.542E-03
  89 F= -.23333584E+04 E0= -.23333584E+04  d E =-.783568E-03  mag=     5.0000
       N       E                     dE             d eps       ncg     rms          rms(c)
DAV:   1    -0.231259802432E+04    0.77215E-03   -0.12953E-01  4448   0.383E-01    0.106E-01
RMM:   2    -0.231259936847E+04   -0.13442E-02   -0.13675E-02  6047   0.741E-02    0.102E-01
RMM:   3    -0.231259942480E+04   -0.56324E-04   -0.13652E-03  4224   0.272E-02    0.792E-02
RMM:   4    -0.231259937512E+04    0.49679E-04   -0.14241E-04  2967   0.738E-03    0.272E-02
RMM:   5    -0.231259936603E+04    0.90862E-05   -0.31693E-05  2929   0.511E-03
  90 F= -.23333590E+04 E0= -.23333590E+04  d E =-.608144E-03  mag=     5.0000
       N       E                     dE             d eps       ncg     rms          rms(c)
DAV:   1    -0.231259451391E+04    0.48612E-02   -0.50146E-01  4432   0.753E-01    0.209E-01
RMM:   2    -0.231259977639E+04   -0.52625E-02   -0.52956E-02  5958   0.144E-01    0.215E-01
RMM:   3    -0.231259989757E+04   -0.12118E-03   -0.52428E-03  5392   0.550E-02    0.150E-01
RMM:   4    -0.231259970857E+04    0.18901E-03   -0.55254E-04  4257   0.129E-02    0.531E-02
RMM:   5    -0.231259967154E+04    0.37027E-04   -0.11945E-04  3812   0.924E-03    0.336E-02
[...]
RMM:   3    -0.231260580310E+04   -0.81777E-05   -0.38167E-04  3252   0.143E-02    0.490E-02
RMM:   4    -0.231260578233E+04    0.20765E-04   -0.43620E-05  2903   0.498E-03    0.163E-02
RMM:   5    -0.231260577816E+04    0.41759E-05   -0.16830E-05  2902   0.373E-03
 117 F= -.23333669E+04 E0= -.23333669E+04  d E =-.507512E-03  mag=     5.0000
       N       E                     dE             d eps       ncg     rms          rms(c)
DAV:   1    -0.231260443528E+04    0.13471E-02   -0.19875E-01  4448   0.449E-01    0.139E-01
RMM:   2    -0.231260628739E+04   -0.18521E-02   -0.18728E-02  6010   0.899E-02    0.138E-01
RMM:   3    -0.231260630849E+04   -0.21096E-04   -0.17214E-03  4684   0.319E-02    0.103E-01
RMM:   4    -0.231260621705E+04    0.91432E-04   -0.19437E-04  3248   0.888E-03    0.341E-02
RMM:   5    -0.231260620482E+04    0.12237E-04   -0.72999E-05  3461   0.728E-03    0.264E-02
RMM:   6    -0.231260620274E+04    0.20728E-05   -0.35508E-05  2934   0.592E-03
 118 F= -.23333674E+04 E0= -.23333674E+04  d E =-.480614E-03  mag=     5.0000
       N       E                     dE             d eps       ncg     rms          rms(c)
DAV:   1    -0.231260600815E+04    0.19667E-03   -0.18738E-02  4720   0.138E-01    0.435E-02
RMM:   2    -0.231260618384E+04   -0.17569E-03   -0.17987E-03  6053   0.287E-02    0.376E-02
RMM:   3    -0.231260619209E+04   -0.82470E-05   -0.17771E-04  2961   0.100E-02    0.345E-02
RMM:   4    -0.231260618288E+04    0.92116E-05   -0.20427E-05  2887   0.361E-03
 119 F= -.23333674E+04 E0= -.23333674E+04  d E =-.478206E-03  mag=     5.0000
       N       E                     dE             d eps       ncg     rms          rms(c)
DAV:   1    -0.231260494451E+04    0.12476E-02   -0.18160E-01  4448   0.429E-01    0.137E-01
RMM:   2    -0.231260674468E+04   -0.18002E-02   -0.18017E-02  5961   0.855E-02    0.139E-01
RMM:   3    -0.231260674931E+04   -0.46338E-05   -0.16773E-03  4537   0.312E-02    0.992E-02
RMM:   4    -0.231260666299E+04    0.86322E-04   -0.18728E-04  3191   0.857E-03    0.331E-02
RMM:   5    -0.231260664687E+04    0.16123E-04   -0.63681E-05  3427   0.688E-03    0.138E-02
RMM:   6    -0.231260664705E+04   -0.18680E-06   -0.13687E-05  2893   0.528E-03
 120 F= -.23333678E+04 E0= -.23333678E+04  d E =-.454096E-03  mag=     5.0000
       N       E                     dE             d eps       ncg     rms          rms(c)
DAV:   1    -0.231260634921E+04    0.29766E-03   -0.32520E-02  4560   0.182E-01    0.589E-02
RMM:   2    -0.231260667635E+04   -0.32714E-03   -0.32722E-03  6053   0.375E-02    0.594E-02
RMM:   3    -0.231260667902E+04   -0.26657E-05   -0.30635E-04  3095   0.127E-02    0.429E-02
RMM:   4    -0.231260666417E+04    0.14846E-04   -0.34404E-05  2899   0.441E-03    0.142E-02
RMM:   5    -0.231260666247E+04    0.17001E-05   -0.12420E-05  2880   0.315E-03
 121 F= -.23333679E+04 E0= -.23333679E+04  d E =-.465420E-03  mag=     5.0000
       N       E                     dE             d eps       ncg     rms          rms(c)
DAV:   1    -0.231260567907E+04    0.98510E-03   -0.15029E-01  4448   0.387E-01    0.118E-01
RMM:   2    -0.231260718302E+04   -0.15040E-02   -0.15284E-02  6011   0.783E-02    0.117E-01
RMM:   3    -0.231260720910E+04   -0.26071E-04   -0.13835E-03  4243   0.269E-02    0.867E-02
RMM:   4    -0.231260714619E+04    0.62903E-04   -0.15463E-04  3047   0.779E-03    0.307E-02
RMM:   5    -0.231260713221E+04    0.13977E-04   -0.50307E-05  3262   0.620E-03    0.132E-02
RMM:   6    -0.231260713267E+04   -0.45572E-06   -0.13914E-05  2885   0.514E-03
 122 F= -.23333683E+04 E0= -.23333683E+04  d E =-.454588E-03  mag=     5.0000
       N       E                     dE             d eps       ncg     rms          rms(c)
DAV:   1    -0.231260665805E+04    0.47416E-03   -0.52803E-02  4464   0.230E-01    0.709E-02
RMM:   2    -0.231260719312E+04   -0.53507E-03   -0.54138E-03  6075   0.469E-02    0.703E-02
RMM:   3    -0.231260720240E+04   -0.92773E-05   -0.49401E-04  3316   0.153E-02    0.524E-02
RMM:   4    -0.231260718000E+04    0.22405E-04   -0.55566E-05  2911   0.518E-03    0.184E-02
RMM:   5    -0.231260717567E+04    0.43282E-05   -0.17845E-05  2901   0.377E-03
 123 F= -.23333683E+04 E0= -.23333683E+04  d E =-.488610E-03  mag=     5.0000
       N       E                     dE             d eps       ncg     rms          rms(c)
DAV:   1    -0.231260611368E+04    0.10663E-02   -0.16406E-01  4448   0.415E-01    0.131E-01
RMM:   2    -0.231260760909E+04   -0.14954E-02   -0.15011E-02  5991   0.823E-02    0.128E-01
RMM:   3    -0.231260759849E+04    0.10602E-04   -0.13528E-03  4430   0.290E-02    0.955E-02
RMM:   4    -0.231260751025E+04    0.88236E-04   -0.15538E-04  3170   0.843E-03    0.310E-02
RMM:   5    -0.231260750476E+04    0.54866E-05   -0.62181E-05  3154   0.679E-03
 124 F= -.23333688E+04 E0= -.23333688E+04  d E =-.446880E-03  mag=     5.0000
       N       E                     dE             d eps       ncg     rms          rms(c)
DAV:   1    -0.231260717126E+04    0.33899E-03   -0.30774E-02  4664   0.180E-01    0.569E-02
RMM:   2    -0.231260745032E+04   -0.27905E-03   -0.28930E-03  6176   0.379E-02    0.446E-02
RMM:   3    -0.231260745901E+04   -0.86926E-05   -0.29032E-04  3184   0.128E-02    0.398E-02
RMM:   4    -0.231260744099E+04    0.18024E-04   -0.31304E-05  2893   0.487E-03    0.143E-02
RMM:   5    -0.231260743882E+04    0.21676E-05   -0.16276E-05  2876   0.358E-03
 125 F= -.23333688E+04 E0= -.23333688E+04  d E =-.432689E-03  mag=     5.0000
       N       E                     dE             d eps       ncg     rms          rms(c)
DAV:   1    -0.231260622599E+04    0.12150E-02   -0.15312E-01  4448   0.388E-01    0.115E-01
RMM:   2    -0.231260770216E+04   -0.14762E-02   -0.14900E-02  6079   0.784E-02    0.114E-01
RMM:   3    -0.231260770810E+04   -0.59378E-05   -0.12778E-03  4210   0.266E-02    0.824E-02
RMM:   4    -0.231260764882E+04    0.59276E-04   -0.14899E-04  3057   0.781E-03    0.309E-02
RMM:   5    -0.231260763904E+04    0.97757E-05   -0.51921E-05  3103   0.628E-03
 126 F= -.23333692E+04 E0= -.23333692E+04  d E =-.382213E-03  mag=     5.0000
       N       E                     dE             d eps       ncg     rms          rms(c)
DAV:   1    -0.231260716480E+04    0.48401E-03   -0.42178E-02  4528   0.204E-01    0.627E-02
RMM:   2    -0.231260758241E+04   -0.41761E-03   -0.41899E-03  6269   0.434E-02    0.608E-02
RMM:   3    -0.231260757647E+04    0.59443E-05   -0.40026E-04  3228   0.141E-02    0.402E-02
RMM:   4    -0.231260756027E+04    0.16201E-04   -0.42000E-05  2916   0.509E-03    0.168E-02
RMM:   5    -0.231260755821E+04    0.20549E-05   -0.18297E-05  2874   0.382E-03
 127 F= -.23333692E+04 E0= -.23333692E+04  d E =-.397820E-03  mag=     5.0000
       N       E                     dE             d eps       ncg     rms          rms(c)
DAV:   1    -0.231260662480E+04    0.93547E-03   -0.14397E-01  4432   0.381E-01    0.124E-01
RMM:   2    -0.231260793634E+04   -0.13115E-02   -0.13490E-02  5994   0.783E-02    0.105E-01
RMM:   3    -0.231260797399E+04   -0.37647E-04   -0.12197E-03  4306   0.287E-02    0.953E-02
RMM:   4    -0.231260788832E+04    0.85664E-04   -0.14872E-04  3220   0.842E-03    0.311E-02
RMM:   5    -0.231260787867E+04    0.96521E-05   -0.57784E-05  3243   0.692E-03
 128 F= -.23333696E+04 E0= -.23333696E+04  d E =-.391904E-03  mag=     5.0000
       N       E                     dE             d eps       ncg     rms          rms(c)
DAV:   1    -0.231260756866E+04    0.31967E-03   -0.23369E-02  4656   0.154E-01    0.530E-02
RMM:   2    -0.231260779620E+04   -0.22754E-03   -0.22692E-03  6176   0.337E-02    0.504E-02
RMM:   3    -0.231260778658E+04    0.96139E-05   -0.22554E-04  3098   0.115E-02    0.329E-02
RMM:   4    -0.231260777397E+04    0.12618E-04   -0.24957E-05  2904   0.441E-03    0.135E-02
RMM:   5    -0.231260777312E+04    0.84347E-06   -0.13628E-05  2858   0.340E-03
 129 F= -.23333695E+04 E0= -.23333695E+04  d E =-.315549E-03  mag=     5.0000
       N       E                     dE             d eps       ncg     rms          rms(c)
DAV:   1    -0.231260774276E+04    0.31207E-04   -0.13684E-02  4496   0.117E-01    0.405E-02
RMM:   2    -0.231260787981E+04   -0.13705E-03   -0.12879E-03  5937   0.250E-02    0.539E-02
RMM:   3    -0.231260786593E+04    0.13883E-04   -0.12736E-04  2935   0.841E-03    0.245E-02
RMM:   4    -0.231260786024E+04    0.56939E-05   -0.14340E-05  2853   0.320E-03
 130 F= -.23333696E+04 E0= -.23333696E+04  d E =-.380740E-03  mag=     5.0000
       N       E                     dE             d eps       ncg     rms          rms(c)
DAV:   1    -0.231260786473E+04    0.12028E-05   -0.44965E-04  4600   0.216E-02    0.131E-02
RMM:   2    -0.231260787356E+04   -0.88340E-05   -0.55669E-05  3020   0.520E-03
 131 F= -.23333696E+04 E0= -.23333696E+04  d E =-.389900E-03  mag=     5.0000
       N       E                     dE             d eps       ncg     rms          rms(c)
DAV:   1    -0.231260764688E+04    0.21785E-03   -0.60172E-02  4456   0.249E-01    0.822E-02
RMM:   2    -0.231260819445E+04   -0.54756E-03   -0.54808E-03  6091   0.507E-02    0.862E-02
RMM:   3    -0.231260817982E+04    0.14623E-04   -0.50082E-04  3650   0.184E-02    0.590E-02
RMM:   4    -0.231260814704E+04    0.32779E-04   -0.61222E-05  2947   0.596E-03    0.184E-02
RMM:   5    -0.231260814047E+04    0.65737E-05   -0.22444E-05  2917   0.483E-03
 132 F= -.23333698E+04 E0= -.23333698E+04  d E =-.245555E-03  mag=     5.0000
       N       E                     dE             d eps       ncg     rms          rms(c)
DAV:   1    -0.231260808953E+04    0.57509E-04   -0.68991E-03  4824   0.848E-02    0.288E-02
RMM:   2    -0.231260815501E+04   -0.65477E-04   -0.66041E-04  5594   0.196E-02    0.267E-02
RMM:   3    -0.231260815433E+04    0.67856E-06   -0.65424E-05  2897   0.712E-03
 133 F= -.23333698E+04 E0= -.23333698E+04  d E =-.252118E-03  mag=     5.0000
       N       E                     dE             d eps       ncg     rms          rms(c)
DAV:   1    -0.231260771158E+04    0.44343E-03   -0.69986E-02  4456   0.268E-01    0.846E-02
RMM:   2    -0.231260837642E+04   -0.66484E-03   -0.66285E-03  5989   0.544E-02    0.899E-02
RMM:   3    -0.231260835480E+04    0.21618E-04   -0.58013E-04  3611   0.183E-02    0.592E-02
RMM:   4    -0.231260832403E+04    0.30769E-04   -0.75280E-05  2959   0.596E-03    0.237E-02
RMM:   5    -0.231260832354E+04    0.48836E-06   -0.30578E-05  2898   0.459E-03
 134 F= -.23333701E+04 E0= -.23333701E+04  d E =-.232854E-03  mag=     5.0000
       N       E                     dE             d eps       ncg     rms          rms(c)
DAV:   1    -0.231260816985E+04    0.15419E-03   -0.13153E-02  4624   0.117E-01    0.363E-02
RMM:   2    -0.231260828995E+04   -0.12010E-03   -0.12529E-03  5943   0.252E-02    0.295E-02
RMM:   3    -0.231260829448E+04   -0.45374E-05   -0.12618E-04  2940   0.890E-03    0.267E-02
RMM:   4    -0.231260828698E+04    0.75034E-05   -0.14055E-05  2882   0.335E-03
 135 F= -.23333700E+04 E0= -.23333700E+04  d E =-.224387E-03  mag=     5.0000
       N       E                     dE             d eps       ncg     rms          rms(c)
DAV:   1    -0.231260794833E+04    0.34615E-03   -0.55673E-02  4456   0.237E-01    0.723E-02
RMM:   2    -0.231260849426E+04   -0.54593E-03   -0.52662E-03  6026   0.472E-02    0.958E-02
RMM:   3    -0.231260845379E+04    0.40465E-04   -0.46690E-04  3441   0.159E-02    0.443E-02
RMM:   4    -0.231260843662E+04    0.17177E-04   -0.54989E-05  2925   0.505E-03    0.187E-02
RMM:   5    -0.231260843697E+04   -0.34989E-06   -0.21078E-05  2907   0.397E-03
 136 F= -.23333703E+04 E0= -.23333703E+04  d E =-.231548E-03  mag=     5.0000
       N       E                     dE             d eps       ncg     rms          rms(c)
DAV:   1    -0.231260781922E+04    0.61740E-03   -0.64589E-02  4456   0.255E-01    0.749E-02
RMM:   2    -0.231260841849E+04   -0.59927E-03   -0.61109E-03  6205   0.523E-02    0.726E-02
RMM:   3    -0.231260841974E+04   -0.12461E-05   -0.54521E-04  3407   0.163E-02    0.542E-02
RMM:   4    -0.231260839141E+04    0.28325E-04   -0.59590E-05  2944   0.575E-03    0.202E-02
RMM:   5    -0.231260838894E+04    0.24773E-05   -0.26087E-05  2882   0.446E-03
 137 F= -.23333703E+04 E0= -.23333703E+04  d E =-.271745E-03  mag=     5.0000
       N       E                     dE             d eps       ncg     rms          rms(c)
DAV:   1    -0.231260812927E+04    0.26215E-03   -0.49527E-02  4464   0.223E-01    0.651E-02
RMM:   2    -0.231260859932E+04   -0.47005E-03   -0.47885E-03  6219   0.466E-02    0.623E-02
RMM:   3    -0.231260860034E+04   -0.10194E-05   -0.43648E-04  3295   0.149E-02    0.452E-02
RMM:   4    -0.231260858010E+04    0.20237E-04   -0.47514E-05  2918   0.523E-03    0.176E-02
RMM:   5    -0.231260857886E+04    0.12403E-05   -0.19498E-05  2872   0.388E-03
 138 F= -.23333705E+04 E0= -.23333705E+04  d E =-.229541E-03  mag=     5.0000
       N       E                     dE             d eps       ncg     rms          rms(c)
DAV:   1    -0.231260770391E+04    0.87620E-03   -0.99747E-02  4448   0.316E-01    0.923E-02
RMM:   2    -0.231260864998E+04   -0.94608E-03   -0.95987E-03  6164   0.646E-02    0.915E-02
RMM:   3    -0.231260864792E+04    0.20633E-05   -0.83421E-04  3768   0.212E-02    0.647E-02
RMM:   4    -0.231260860855E+04    0.39372E-04   -0.95796E-05  2994   0.675E-03    0.247E-02
RMM:   5    -0.231260860455E+04    0.39945E-05   -0.35663E-05  2908   0.529E-03
 139 F= -.23333706E+04 E0= -.23333706E+04  d E =-.311630E-03  mag=     5.0000
       N       E                     dE             d eps       ncg     rms          rms(c)
DAV:   1    -0.231260824273E+04    0.36581E-03   -0.63004E-02  4464   0.256E-01    0.791E-02
RMM:   2    -0.231260883634E+04   -0.59361E-03   -0.60969E-03  6214   0.536E-02    0.695E-02
RMM:   3    -0.231260884560E+04   -0.92572E-05   -0.58673E-04  3534   0.179E-02    0.567E-02
RMM:   4    -0.231260881151E+04    0.34085E-04   -0.62803E-05  2948   0.610E-03    0.200E-02
RMM:   5    -0.231260880989E+04    0.16214E-05   -0.27932E-05  2876   0.464E-03
 140 F= -.23333709E+04 E0= -.23333709E+04  d E =-.243237E-03  mag=     5.0000
       N       E                     dE             d eps       ncg     rms          rms(c)
DAV:   1    -0.231260847546E+04    0.33605E-03   -0.35769E-02  4496   0.193E-01    0.596E-02
RMM:   2    -0.231260881340E+04   -0.33794E-03   -0.34867E-03  6219   0.410E-02    0.516E-02
RMM:   3    -0.231260882003E+04   -0.66301E-05   -0.33195E-04  3238   0.135E-02    0.433E-02
RMM:   4    -0.231260880072E+04    0.19307E-04   -0.36723E-05  2902   0.490E-03    0.155E-02
RMM:   5    -0.231260879906E+04    0.16647E-05   -0.16667E-05  2871   0.369E-03
 141 F= -.23333709E+04 E0= -.23333709E+04  d E =-.261157E-03  mag=     5.0000
       N       E                     dE             d eps       ncg     rms          rms(c)
DAV:   1    -0.231260829370E+04    0.50702E-03   -0.60682E-02  4456   0.248E-01    0.770E-02
RMM:   2    -0.231260893271E+04   -0.63900E-03   -0.64399E-03  6215   0.523E-02    0.795E-02
RMM:   3    -0.231260892607E+04    0.66314E-05   -0.57783E-04  3503   0.173E-02    0.530E-02
RMM:   4    -0.231260889986E+04    0.26213E-04   -0.65900E-05  2942   0.579E-03    0.197E-02
RMM:   5    -0.231260889659E+04    0.32747E-05   -0.24087E-05  2887   0.450E-03
 142 F= -.23333711E+04 E0= -.23333711E+04  d E =-.191494E-03  mag=     5.0000
       N       E                     dE             d eps       ncg     rms          rms(c)
DAV:   1    -0.231260874845E+04    0.15141E-03   -0.10799E-02  4688   0.105E-01    0.335E-02
RMM:   2    -0.231260886379E+04   -0.11533E-03   -0.11735E-03  5852   0.238E-02    0.310E-02
RMM:   3    -0.231260886362E+04    0.17001E-06   -0.11485E-04  2943   0.832E-03    0.210E-02
RMM:   4    -0.231260885888E+04    0.47355E-05   -0.12446E-05  2892   0.314E-03
 143 F= -.23333711E+04 E0= -.23333711E+04  d E =-.193870E-03  mag=     5.0000
       N       E                     dE             d eps       ncg     rms          rms(c)
DAV:   1    -0.231260848333E+04    0.38029E-03   -0.57713E-02  4464   0.246E-01    0.839E-02
RMM:   2    -0.231260905388E+04   -0.57056E-03   -0.56984E-03  5957   0.500E-02    0.871E-02
RMM:   3    -0.231260903819E+04    0.15698E-04   -0.50648E-04  3625   0.184E-02    0.599E-02
RMM:   4    -0.231260900439E+04    0.33791E-04   -0.64862E-05  2944   0.582E-03    0.197E-02
RMM:   5    -0.231260900364E+04    0.75650E-06   -0.25633E-05  2899   0.457E-03
 144 F= -.23333713E+04 E0= -.23333713E+04  d E =-.207950E-03  mag=     5.0000
       N       E                     dE             d eps       ncg     rms          rms(c)
DAV:   1    -0.231260894485E+04    0.59542E-04   -0.36158E-03  5232   0.622E-02    0.221E-02
RMM:   2    -0.231260898169E+04   -0.36832E-04   -0.37885E-04  4897   0.145E-02    0.188E-02
RMM:   3    -0.231260898184E+04   -0.15303E-06   -0.39320E-05  2873   0.599E-03
 145 F= -.23333713E+04 E0= -.23333713E+04  d E =-.202295E-03  mag=     5.0000
       N       E                     dE             d eps       ncg     rms          rms(c)
DAV:   1    -0.231260880170E+04    0.17999E-03   -0.36467E-02  4464   0.195E-01    0.652E-02
RMM:   2    -0.231260917627E+04   -0.37457E-03   -0.37087E-03  6027   0.411E-02    0.700E-02
RMM:   3    -0.231260915997E+04    0.16303E-04   -0.33153E-04  3213   0.137E-02    0.456E-02
RMM:   4    -0.231260914264E+04    0.17327E-04   -0.45341E-05  2908   0.489E-03    0.194E-02
RMM:   5    -0.231260914221E+04    0.42966E-06   -0.17582E-05  2885   0.349E-03
 146 F= -.23333715E+04 E0= -.23333715E+04  d E =-.171806E-03  mag=     5.0000
       N       E                     dE             d eps       ncg     rms          rms(c)
DAV:   1    -0.231260902647E+04    0.11617E-03   -0.11403E-02  4528   0.109E-01    0.359E-02
RMM:   2    -0.231260913768E+04   -0.11121E-03   -0.11544E-03  5916   0.236E-02    0.303E-02
RMM:   3    -0.231260914110E+04   -0.34204E-05   -0.11486E-04  2920   0.848E-03    0.274E-02
RMM:   4    -0.231260913367E+04    0.74349E-05   -0.13400E-05  2881   0.313E-03
 147 F= -.23333715E+04 E0= -.23333715E+04  d E =-.169749E-03  mag=     5.0000
       N       E                     dE             d eps       ncg     rms          rms(c)
DAV:   1    -0.231260899191E+04    0.14919E-03   -0.31989E-02  4464   0.182E-01    0.595E-02
RMM:   2    -0.231260931189E+04   -0.31997E-03   -0.30798E-03  6027   0.368E-02    0.759E-02
RMM:   3    -0.231260928482E+04    0.27066E-04   -0.28450E-04  3131   0.127E-02    0.380E-02
RMM:   4    -0.231260927227E+04    0.12545E-04   -0.35664E-05  2915   0.431E-03    0.156E-02
RMM:   5    -0.231260927289E+04   -0.61978E-06   -0.14799E-05  2880   0.324E-03
 148 F= -.23333716E+04 E0= -.23333716E+04  d E =-.146098E-03  mag=     5.0000
       N       E                     dE             d eps       ncg     rms          rms(c)
DAV:   1    -0.231260916023E+04    0.11204E-03   -0.13353E-02  4544   0.118E-01    0.372E-02
RMM:   2    -0.231260928431E+04   -0.12408E-03   -0.12832E-03  5953   0.249E-02    0.317E-02
RMM:   3    -0.231260928687E+04   -0.25657E-05   -0.12479E-04  2931   0.876E-03    0.275E-02
RMM:   4    -0.231260927897E+04    0.79064E-05   -0.14357E-05  2886   0.321E-03
 149 F= -.23333716E+04 E0= -.23333716E+04  d E =-.156657E-03  mag=     5.0000
       N       E                     dE             d eps       ncg     rms          rms(c)
DAV:   1    -0.231260918314E+04    0.10373E-03   -0.34661E-02  4448   0.192E-01    0.669E-02
RMM:   2    -0.231260948591E+04   -0.30277E-03   -0.29642E-03  5931   0.386E-02    0.757E-02
RMM:   3    -0.231260946494E+04    0.20973E-04   -0.29478E-04  3331   0.143E-02    0.475E-02
RMM:   4    -0.231260944372E+04    0.21217E-04   -0.37806E-05  2900   0.486E-03    0.166E-02
RMM:   5    -0.231260944506E+04   -0.13350E-05   -0.19302E-05  2897   0.386E-03
 150 F= -.23333718E+04 E0= -.23333718E+04  d E =-.168632E-03  mag=     5.0000
