       N       E                     dE             d eps       ncg     rms          rms(c)
DAV:   1     0.128821195416E+05    0.12882E+05   -0.83622E+05  4512   0.144E+03
DAV:   2    -0.106526943036E+04   -0.13947E+05   -0.13343E+05  5088   0.330E+02
DAV:   3    -0.248314897942E+04   -0.14179E+04   -0.14026E+04  5408   0.112E+02
DAV:   4    -0.252776544756E+04   -0.44616E+02   -0.44365E+02  6768   0.294E+01
DAV:   5    -0.252856766695E+04   -0.80222E+00   -0.80064E+00  5992   0.334E+00    0.171E+02
RMM:   6    -0.149878091542E+04    0.10298E+04   -0.19509E+03  4444   0.384E+01    0.724E+01
RMM:   7    -0.167521555106E+04   -0.17643E+03   -0.29195E+02  5011   0.140E+01    0.544E+01
RMM:   8    -0.172070684092E+04   -0.45491E+02   -0.99303E+01  5258   0.875E+00    0.444E+01
RMM:   9    -0.177363336498E+04   -0.52927E+02   -0.59020E+01  5020   0.695E+00    0.314E+01
RMM:  10    -0.191454170056E+04   -0.14091E+03   -0.64346E+01  5366   0.734E+00    0.331E+01
RMM:  11    -0.197844773888E+04   -0.63906E+02   -0.29589E+01  5394   0.462E+00    0.192E+01
RMM:  12    -0.208473194658E+04   -0.10628E+03   -0.48601E+01  4603   0.527E+00    0.138E+01
RMM:  13    -0.219734190742E+04   -0.11261E+03   -0.81172E+01  4511   0.645E+00    0.110E+01
RMM:  14    -0.226416266729E+04   -0.66821E+02   -0.49467E+01  4856   0.540E+00    0.734E+00
RMM:  15    -0.230986996387E+04   -0.45707E+02   -0.45384E+01  4543   0.467E+00    0.522E+00
RMM:  16    -0.231633774698E+04   -0.64678E+01   -0.77905E+00  4687   0.260E+00    0.365E+00
RMM:  17    -0.232174225453E+04   -0.54045E+01   -0.47370E+00  4513   0.138E+00    0.160E+00
RMM:  18    -0.232311975106E+04   -0.13775E+01   -0.10650E+00  4584   0.103E+00    0.131E+00
RMM:  19    -0.232358766635E+04   -0.46792E+00   -0.33454E-01  4912   0.331E-01    0.713E-01
RMM:  20    -0.232380233568E+04   -0.21467E+00   -0.93689E-02  4864   0.252E-01    0.499E-01
RMM:  21    -0.232385028219E+04   -0.47947E-01   -0.22090E-02  4878   0.115E-01    0.241E-01
RMM:  22    -0.232389097517E+04   -0.40693E-01   -0.13730E-02  4508   0.881E-02    0.190E-01
RMM:  23    -0.232390859942E+04   -0.17624E-01   -0.53630E-03  4559   0.612E-02    0.179E-01
RMM:  24    -0.232392074210E+04   -0.12143E-01   -0.39013E-03  4505   0.469E-02    0.298E-01
RMM:  25    -0.232391867282E+04    0.20693E-02   -0.59248E-04  4192   0.285E-02    0.126E-01
RMM:  26    -0.232392659221E+04   -0.79194E-02   -0.18398E-03  4421   0.321E-02    0.158E-01
RMM:  27    -0.232392968728E+04   -0.30951E-02   -0.86147E-04  4134   0.224E-02    0.108E-01
RMM:  28    -0.232393282494E+04   -0.31377E-02   -0.93766E-04  4157   0.223E-02    0.110E-01
RMM:  29    -0.232393412787E+04   -0.13029E-02   -0.68937E-04  4122   0.206E-02    0.112E-01
RMM:  30    -0.232393412235E+04    0.55175E-05   -0.32279E-04  3945   0.136E-02    0.148E-01
RMM:  31    -0.232393451611E+04   -0.39376E-03   -0.14436E-04  3583   0.818E-03    0.119E-01
RMM:  32    -0.232393490979E+04   -0.39368E-03   -0.28493E-04  3696   0.106E-02    0.104E-01
RMM:  33    -0.232393542342E+04   -0.51363E-03   -0.48391E-04  3810   0.104E-02    0.153E-01
RMM:  34    -0.232393526317E+04    0.16025E-03   -0.52073E-05  2934   0.527E-03    0.951E-02
RMM:  35    -0.232393529654E+04   -0.33368E-04   -0.26528E-04  3722   0.975E-03    0.893E-02
RMM:  36    -0.232393531785E+04   -0.21311E-04   -0.18281E-04  3656   0.978E-03    0.105E-01
RMM:  37    -0.232393523472E+04    0.83125E-04   -0.16714E-04  3498   0.760E-03    0.129E-01
RMM:  38    -0.232393496996E+04    0.26476E-03   -0.16862E-04  3282   0.660E-03    0.171E-01
RMM:  39    -0.232393479494E+04    0.17502E-03   -0.60740E-05  2904   0.473E-03    0.198E-01
RMM:  40    -0.232393510673E+04   -0.31179E-03   -0.79648E-05  2709   0.405E-03    0.156E-01
RMM:  41    -0.232393541931E+04   -0.31258E-03   -0.19705E-04  3272   0.577E-03    0.117E-01
RMM:  42    -0.232393569255E+04   -0.27324E-03   -0.26280E-04  3348   0.661E-03    0.104E-01
RMM:  43    -0.232393590301E+04   -0.21046E-03   -0.20588E-04  3189   0.619E-03    0.116E-01
RMM:  44    -0.232393595951E+04   -0.56506E-04   -0.40782E-05  2776   0.383E-03    0.115E-01
RMM:  45    -0.232393595664E+04    0.28759E-05   -0.43568E-06  2460   0.188E-03
   1 F= -.23449063E+04 E0= -.23449002E+04  d E =-.234491E+04  mag=     7.8456
       N       E                     dE             d eps       ncg     rms          rms(c)
DAV:   1    -0.232393389839E+04    0.20611E-02   -0.14012E+01  4800   0.269E+00    0.107E+00
RMM:   2    -0.232404280470E+04   -0.10891E+00   -0.12534E+00  6163   0.543E-01    0.106E+00
RMM:   3    -0.232404594888E+04   -0.31442E-02   -0.12466E-01  5741   0.192E-01    0.695E-01
RMM:   4    -0.232404626847E+04   -0.31958E-03   -0.19758E-02  5455   0.597E-02    0.120E+00
RMM:   5    -0.232404592446E+04    0.34401E-03   -0.16017E-03  4021   0.238E-02    0.104E+00
RMM:   6    -0.232404286985E+04    0.30546E-02   -0.64678E-03  4658   0.359E-02    0.764E-01
RMM:   7    -0.232404526048E+04   -0.23906E-02   -0.30155E-03  4689   0.309E-02    0.125E+00
RMM:   8    -0.232404702134E+04   -0.17609E-02   -0.11437E-03  4749   0.175E-02    0.134E+00
RMM:   9    -0.232404887985E+04   -0.18585E-02   -0.53099E-04  3859   0.112E-02    0.144E+00
RMM:  10    -0.232405049591E+04   -0.16161E-02   -0.15104E-04  3104   0.673E-03    0.152E+00
RMM:  11    -0.232404352208E+04    0.69738E-02   -0.17448E-03  4275   0.164E-02    0.650E-01
RMM:  12    -0.232404050303E+04    0.30190E-02   -0.17118E-03  4399   0.197E-02    0.596E-01
RMM:  13    -0.232403903908E+04    0.14640E-02   -0.21744E-03  4363   0.192E-02    0.201E-01
RMM:  14    -0.232403853465E+04    0.50442E-03   -0.55469E-04  3794   0.137E-02    0.206E-01
RMM:  15    -0.232403838297E+04    0.15169E-03   -0.58788E-04  4115   0.106E-02    0.142E-01
RMM:  16    -0.232403816072E+04    0.22224E-03   -0.27580E-04  3580   0.940E-03    0.132E-01
RMM:  17    -0.232403779716E+04    0.36356E-03   -0.39829E-04  3961   0.930E-03    0.146E-01
RMM:  18    -0.232403772045E+04    0.76714E-04   -0.43078E-05  2935   0.535E-03    0.159E-01
RMM:  19    -0.232403753492E+04    0.18553E-03   -0.60152E-05  2938   0.365E-03    0.173E-01
RMM:  20    -0.232403782793E+04   -0.29302E-03   -0.92762E-05  2890   0.454E-03    0.156E-01
RMM:  21    -0.232403791204E+04   -0.84104E-04   -0.23388E-05  2618   0.277E-03    0.147E-01
RMM:  22    -0.232403803032E+04   -0.11828E-03   -0.34293E-05  2719   0.274E-03    0.144E-01
RMM:  23    -0.232403882076E+04   -0.79044E-03   -0.77331E-04  4122   0.106E-02    0.223E-01
RMM:  24    -0.232403866241E+04    0.15835E-03   -0.42555E-05  2738   0.515E-03    0.164E-01
RMM:  25    -0.232403889670E+04   -0.23429E-03   -0.64826E-05  2821   0.324E-03    0.218E-01
RMM:  26    -0.232403889057E+04    0.61337E-05   -0.66415E-06  2558   0.231E-03
   2 F= -.23450118E+04 E0= -.23450045E+04  d E =-.105548E+00  mag=     7.8580
       N       E                     dE             d eps       ncg     rms          rms(c)
DAV:   1    -0.232404128568E+04   -0.23890E-02   -0.55880E-01  4704   0.549E-01    0.251E-01
RMM:   2    -0.232404577528E+04   -0.44896E-02   -0.48749E-02  6149   0.107E-01    0.244E-01
RMM:   3    -0.232404627142E+04   -0.49614E-03   -0.48871E-03  4842   0.381E-02    0.335E-01
RMM:   4    -0.232404628441E+04   -0.12994E-04   -0.61005E-04  3099   0.908E-03    0.310E-01
RMM:   5    -0.232404569755E+04    0.58686E-03   -0.55590E-04  3746   0.101E-02    0.149E-01
RMM:   6    -0.232404534576E+04    0.35179E-03   -0.54317E-04  4188   0.110E-02    0.173E-01
RMM:   7    -0.232404499601E+04    0.34975E-03   -0.43239E-04  3805   0.111E-02    0.144E-01
RMM:   8    -0.232404481442E+04    0.18159E-03   -0.12370E-04  3142   0.670E-03    0.144E-01
RMM:   9    -0.232404457537E+04    0.23905E-03   -0.10505E-04  3122   0.536E-03    0.149E-01
RMM:  10    -0.232404481066E+04   -0.23529E-03   -0.61569E-05  2882   0.439E-03    0.142E-01
RMM:  11    -0.232404565503E+04   -0.84436E-03   -0.10561E-03  4195   0.126E-02    0.196E-01
RMM:  12    -0.232404511810E+04    0.53692E-03   -0.38459E-04  3601   0.854E-03    0.990E-02
RMM:  13    -0.232404501301E+04    0.10509E-03   -0.52199E-05  2895   0.471E-03    0.135E-01
RMM:  14    -0.232404465635E+04    0.35666E-03   -0.26893E-04  3527   0.672E-03    0.142E-01
RMM:  15    -0.232404431497E+04    0.34138E-03   -0.17247E-04  3121   0.621E-03    0.182E-01
RMM:  16    -0.232404495860E+04   -0.64363E-03   -0.45076E-04  3385   0.815E-03    0.143E-01
RMM:  17    -0.232404575021E+04   -0.79161E-03   -0.10100E-03  4283   0.126E-02    0.217E-01
RMM:  18    -0.232404646013E+04   -0.70992E-03   -0.55915E-04  3682   0.997E-03    0.319E-01
RMM:  19    -0.232404631426E+04    0.14587E-03   -0.42248E-05  2795   0.475E-03    0.251E-01
RMM:  20    -0.232404532121E+04    0.99304E-03   -0.14263E-03  4146   0.138E-02    0.861E-02
RMM:  21    -0.232404458376E+04    0.73745E-03   -0.84482E-04  3716   0.128E-02    0.151E-01
RMM:  22    -0.232404431487E+04    0.26889E-03   -0.26311E-04  3302   0.658E-03    0.186E-01
RMM:  23    -0.232404376924E+04    0.54563E-03   -0.25339E-04  3381   0.679E-03    0.253E-01
RMM:  24    -0.232404360809E+04    0.16115E-03   -0.43654E-05  2770   0.434E-03    0.274E-01
RMM:  25    -0.232404376053E+04   -0.15244E-03   -0.83392E-06  2451   0.209E-03    0.256E-01
RMM:  26    -0.232404402861E+04   -0.26808E-03   -0.42530E-05  2557   0.268E-03    0.223E-01
RMM:  27    -0.232404440003E+04   -0.37142E-03   -0.13015E-04  3005   0.444E-03    0.179E-01
RMM:  28    -0.232404482287E+04   -0.42285E-03   -0.28918E-04  3377   0.647E-03    0.143E-01
RMM:  29    -0.232404504645E+04   -0.22358E-03   -0.15785E-04  3026   0.530E-03    0.134E-01
RMM:  30    -0.232404532790E+04   -0.28145E-03   -0.19706E-04  3292   0.594E-03    0.152E-01
RMM:  31    -0.232404541140E+04   -0.83496E-04   -0.41934E-05  2705   0.402E-03    0.151E-01
RMM:  32    -0.232404549956E+04   -0.88168E-04   -0.22427E-05  2659   0.260E-03    0.162E-01
RMM:  33    -0.232404549176E+04    0.78065E-05   -0.20511E-06  2309   0.192E-03
   3 F= -.23450179E+04 E0= -.23450114E+04  d E =-.111617E+00  mag=     7.8443
       N       E                     dE             d eps       ncg     rms          rms(c)
DAV:   1    -0.232400167939E+04    0.43820E-01   -0.86120E+00  4544   0.229E+00    0.101E+00
RMM:   2    -0.232415836774E+04   -0.15669E+00   -0.16090E+00  6177   0.520E-01    0.842E-01
RMM:   3    -0.232417052953E+04   -0.12162E-01   -0.19774E-01  5613   0.251E-01    0.464E-01
RMM:   4    -0.232417042208E+04    0.10745E-03   -0.17646E-02  5302   0.438E-02    0.279E-01
RMM:   5    -0.232416993687E+04    0.48521E-03   -0.21286E-03  4550   0.209E-02    0.268E-01
RMM:   6    -0.232416940017E+04    0.53670E-03   -0.15618E-03  4584   0.184E-02    0.146E-01
RMM:   7    -0.232416930744E+04    0.92731E-04   -0.58965E-04  4242   0.123E-02    0.777E-02
RMM:   8    -0.232416927852E+04    0.28920E-04   -0.15584E-04  3069   0.856E-03    0.455E-02
RMM:   9    -0.232416926440E+04    0.14114E-04   -0.30593E-05  2895   0.459E-03    0.163E-02
RMM:  10    -0.232416926551E+04   -0.11089E-05   -0.23775E-05  2940   0.319E-03
   4 F= -.23451441E+04 E0= -.23451386E+04  d E =-.126159E+00  mag=     7.8307
       N       E                     dE             d eps       ncg     rms          rms(c)
DAV:   1    -0.232398148103E+04    0.18778E+00   -0.12077E+01  4512   0.271E+00    0.120E+00
RMM:   2    -0.232420448344E+04   -0.22300E+00   -0.22882E+00  6248   0.612E-01    0.970E-01
RMM:   3    -0.232422106887E+04   -0.16585E-01   -0.27748E-01  5748   0.278E-01    0.566E-01
RMM:   4    -0.232422101460E+04    0.54270E-04   -0.24888E-02  5392   0.504E-02    0.324E-01
RMM:   5    -0.232422023053E+04    0.78407E-03   -0.28970E-03  4680   0.252E-02    0.314E-01
RMM:   6    -0.232421972011E+04    0.51041E-03   -0.21029E-03  4758   0.210E-02    0.189E-01
RMM:   7    -0.232421954794E+04    0.17217E-03   -0.90703E-04  4460   0.150E-02    0.916E-02
RMM:   8    -0.232421956436E+04   -0.16420E-04   -0.23813E-04  3273   0.105E-02    0.841E-02
RMM:   9    -0.232421952643E+04    0.37936E-04   -0.13633E-04  2983   0.692E-03    0.320E-02
RMM:  10    -0.232421953541E+04   -0.89799E-05   -0.37480E-05  2946   0.424E-03
   5 F= -.23451975E+04 E0= -.23451953E+04  d E =-.179588E+00  mag=     7.9125
       N       E                     dE             d eps       ncg     rms          rms(c)
DAV:   1    -0.232416041664E+04    0.59110E-01   -0.84432E+00  4512   0.243E+00    0.966E-01
RMM:   2    -0.232428923720E+04   -0.12882E+00   -0.13281E+00  6059   0.520E-01    0.653E-01
RMM:   3    -0.232429971767E+04   -0.10480E-01   -0.15203E-01  5595   0.231E-01    0.472E-01
RMM:   4    -0.232429902558E+04    0.69208E-03   -0.14409E-02  5765   0.466E-02    0.279E-01
RMM:   5    -0.232429840513E+04    0.62045E-03   -0.23166E-03  5174   0.254E-02    0.259E-01
RMM:   6    -0.232429780685E+04    0.59828E-03   -0.20440E-03  5197   0.243E-02    0.124E-01
RMM:   7    -0.232429772004E+04    0.86815E-04   -0.55470E-04  4717   0.149E-02    0.863E-02
RMM:   8    -0.232429767487E+04    0.45170E-04   -0.17969E-04  3346   0.867E-03    0.348E-02
RMM:   9    -0.232429767224E+04    0.26291E-05   -0.38225E-05  2917   0.561E-03
   6 F= -.23452764E+04 E0= -.23452754E+04  d E =-.789624E-01  mag=     7.9617
       N       E                     dE             d eps       ncg     rms          rms(c)
DAV:   1    -0.232419328787E+04    0.10439E+00   -0.80641E+00  4496   0.237E+00    0.946E-01
RMM:   2    -0.232431569975E+04   -0.12241E+00   -0.12684E+00  6030   0.511E-01    0.615E-01
RMM:   3    -0.232432584187E+04   -0.10142E-01   -0.14455E-01  5546   0.232E-01    0.427E-01
RMM:   4    -0.232432536602E+04    0.47584E-03   -0.13547E-02  5687   0.458E-02    0.260E-01
RMM:   5    -0.232432473419E+04    0.63184E-03   -0.22766E-03  5212   0.264E-02    0.226E-01
RMM:   6    -0.232432433979E+04    0.39440E-03   -0.17117E-03  5195   0.226E-02    0.132E-01
RMM:   7    -0.232432424037E+04    0.99420E-04   -0.47214E-04  4681   0.140E-02    0.916E-02
RMM:   8    -0.232432417850E+04    0.61867E-04   -0.16556E-04  3167   0.823E-03    0.328E-02
RMM:   9    -0.232432416721E+04    0.11285E-04   -0.35770E-05  2918   0.528E-03    0.108E-02
RMM:  10    -0.232432416847E+04   -0.12508E-05   -0.17722E-05  2924   0.383E-03
   7 F= -.23453040E+04 E0= -.23453033E+04  d E =-.106492E+00  mag=     7.9811
       N       E                     dE             d eps       ncg     rms          rms(c)
DAV:   1    -0.232430749587E+04    0.16671E-01   -0.54006E+00  4544   0.213E+00    0.831E-01
RMM:   2    -0.232437807359E+04   -0.70578E-01   -0.74871E-01  5910   0.425E-01    0.422E-01
RMM:   3    -0.232438390152E+04   -0.58279E-02   -0.75714E-02  5299   0.189E-01    0.341E-01
RMM:   4    -0.232438352344E+04    0.37808E-03   -0.82015E-03  5656   0.388E-02    0.198E-01
RMM:   5    -0.232438310391E+04    0.41953E-03   -0.13615E-03  4937   0.221E-02    0.143E-01
RMM:   6    -0.232438296706E+04    0.13686E-03   -0.88057E-04  4912   0.181E-02    0.105E-01
RMM:   7    -0.232438289789E+04    0.69167E-04   -0.26078E-04  4329   0.114E-02    0.703E-02
RMM:   8    -0.232438285263E+04    0.45261E-04   -0.72116E-05  2948   0.600E-03    0.164E-02
RMM:   9    -0.232438284506E+04    0.75714E-05   -0.19670E-05  2926   0.401E-03
   8 F= -.23453630E+04 E0= -.23453624E+04  d E =-.589771E-01  mag=     7.9878
       N       E                     dE             d eps       ncg     rms          rms(c)
DAV:   1    -0.232427806338E+04    0.10479E+00   -0.94545E+00  4496   0.282E+00    0.110E+00
RMM:   2    -0.232440172700E+04   -0.12366E+00   -0.13149E+00  5881   0.563E-01    0.565E-01
RMM:   3    -0.232441197110E+04   -0.10244E-01   -0.13567E-01  5282   0.256E-01    0.453E-01
RMM:   4    -0.232441129713E+04    0.67397E-03   -0.14296E-02  5774   0.511E-02    0.260E-01
RMM:   5    -0.232441053510E+04    0.76203E-03   -0.24303E-03  5103   0.297E-02    0.173E-01
RMM:   6    -0.232441024445E+04    0.29065E-03   -0.14407E-03  5086   0.231E-02    0.109E-01
RMM:   7    -0.232441019873E+04    0.45719E-04   -0.35940E-04  4625   0.146E-02    0.100E-01
RMM:   8    -0.232441010797E+04    0.90757E-04   -0.13486E-04  3187   0.679E-03    0.248E-02
RMM:   9    -0.232441008939E+04    0.18587E-04   -0.34653E-05  2971   0.499E-03    0.116E-02
RMM:  10    -0.232441008109E+04    0.83018E-05   -0.17922E-05  2899   0.426E-03
   9 F= -.23453907E+04 E0= -.23453902E+04  d E =-.867370E-01  mag=     7.9889
       N       E                     dE             d eps       ncg     rms          rms(c)
DAV:   1    -0.232440209306E+04    0.79963E-02   -0.28168E+00  4656   0.163E+00    0.609E-01
RMM:   2    -0.232443380804E+04   -0.31715E-01   -0.34507E-01  5801   0.310E-01    0.307E-01
RMM:   3    -0.232443612869E+04   -0.23207E-02   -0.30644E-02  5290   0.134E-01    0.250E-01
RMM:   4    -0.232443582629E+04    0.30241E-03   -0.39176E-03  5319   0.302E-02    0.171E-01
RMM:   5    -0.232443553238E+04    0.29390E-03   -0.92922E-04  4893   0.212E-02    0.884E-02
RMM:   6    -0.232443548227E+04    0.50114E-04   -0.41853E-04  4649   0.141E-02    0.805E-02
RMM:   7    -0.232443542893E+04    0.53337E-04   -0.11873E-04  3491   0.975E-03    0.359E-02
RMM:   8    -0.232443540995E+04    0.18983E-04   -0.32790E-05  2910   0.459E-03    0.108E-02
RMM:   9    -0.232443540396E+04    0.59862E-05   -0.14621E-05  2904   0.349E-03
  10 F= -.23454163E+04 E0= -.23454158E+04  d E =-.256181E-01  mag=     7.9891
       N       E                     dE             d eps       ncg     rms          rms(c)
DAV:   1    -0.232443187414E+04    0.35358E-02   -0.50196E-01  4720   0.689E-01    0.257E-01
RMM:   2    -0.232443751419E+04   -0.56401E-02   -0.61578E-02  5832   0.132E-01    0.128E-01
RMM:   3    -0.232443789883E+04   -0.38464E-03   -0.52656E-03  5101   0.543E-02    0.983E-02
RMM:   4    -0.232443785541E+04    0.43418E-04   -0.68669E-04  3975   0.131E-02    0.737E-02
RMM:   5    -0.232443779951E+04    0.55906E-04   -0.17265E-04  3820   0.101E-02    0.384E-02
RMM:   6    -0.232443778571E+04    0.13797E-04   -0.77873E-05  3596   0.748E-03    0.329E-02
RMM:   7    -0.232443777659E+04    0.91209E-05   -0.23752E-05  2890   0.567E-03
  11 F= -.23454188E+04 E0= -.23454182E+04  d E =-.281192E-01  mag=     7.9887
       N       E                     dE             d eps       ncg     rms          rms(c)
DAV:   1    -0.232442904204E+04    0.87437E-02   -0.13728E+00  4544   0.109E+00    0.406E-01
RMM:   2    -0.232444944244E+04   -0.20400E-01   -0.21185E-01  5844   0.208E-01    0.238E-01
RMM:   3    -0.232445119678E+04   -0.17543E-02   -0.23590E-02  5150   0.102E-01    0.171E-01
RMM:   4    -0.232445110139E+04    0.95396E-04   -0.22815E-03  4744   0.191E-02    0.122E-01
RMM:   5    -0.232445092822E+04    0.17316E-03   -0.51145E-04  4328   0.133E-02    0.680E-02
RMM:   6    -0.232445089764E+04    0.30584E-04   -0.22047E-04  4095   0.977E-03    0.384E-02
RMM:   7    -0.232445089104E+04    0.66035E-05   -0.48983E-05  2926   0.656E-03
  12 F= -.23454324E+04 E0= -.23454320E+04  d E =-.135959E-01  mag=     7.9909
       N       E                     dE             d eps       ncg     rms          rms(c)
DAV:   1    -0.232441326842E+04    0.37629E-01   -0.27077E+00  4496   0.153E+00    0.570E-01
RMM:   2    -0.232445353387E+04   -0.40265E-01   -0.41814E-01  5799   0.291E-01    0.332E-01
RMM:   3    -0.232445700136E+04   -0.34675E-02   -0.46563E-02  5179   0.141E-01    0.243E-01
RMM:   4    -0.232445675550E+04    0.24585E-03   -0.44359E-03  5324   0.266E-02    0.173E-01
RMM:   5    -0.232445640563E+04    0.34987E-03   -0.10074E-03  4804   0.179E-02    0.942E-02
RMM:   6    -0.232445632751E+04    0.78122E-04   -0.43054E-04  4563   0.128E-02    0.364E-02
RMM:   7    -0.232445632616E+04    0.13474E-05   -0.76963E-05  3066   0.824E-03
  13 F= -.23454385E+04 E0= -.23454383E+04  d E =-.196922E-01  mag=     7.9937
       N       E                     dE             d eps       ncg     rms          rms(c)
DAV:   1    -0.232444956609E+04    0.67614E-02   -0.84091E-01  4640   0.826E-01    0.311E-01
RMM:   2    -0.232446413548E+04   -0.14569E-01   -0.14815E-01  5882   0.162E-01    0.213E-01
RMM:   3    -0.232446536307E+04   -0.12276E-02   -0.15992E-02  5026   0.780E-02    0.149E-01
RMM:   4    -0.232446527064E+04    0.92434E-04   -0.15173E-03  3817   0.144E-02    0.920E-02
RMM:   5    -0.232446515928E+04    0.11136E-03   -0.27224E-04  3606   0.952E-03    0.507E-02
RMM:   6    -0.232446514339E+04    0.15882E-04   -0.15087E-04  3597   0.777E-03    0.291E-02
RMM:   7    -0.232446514001E+04    0.33793E-05   -0.30355E-05  2891   0.562E-03
  14 F= -.23454478E+04 E0= -.23454476E+04  d E =-.922797E-02  mag=     7.9957
       N       E                     dE             d eps       ncg     rms          rms(c)
DAV:   1    -0.232433999279E+04    0.12515E+00   -0.75573E+00  4480   0.247E+00    0.927E-01
RMM:   2    -0.232447020472E+04   -0.13021E+00   -0.13269E+00  5916   0.486E-01    0.595E-01
RMM:   3    -0.232448240954E+04   -0.12205E-01   -0.15538E-01  5265   0.237E-01    0.448E-01
RMM:   4    -0.232448145074E+04    0.95881E-03   -0.13533E-02  5795   0.425E-02    0.287E-01
RMM:   5    -0.232448050277E+04    0.94796E-03   -0.19535E-03  4992   0.225E-02    0.168E-01
RMM:   6    -0.232448019901E+04    0.30376E-03   -0.17615E-03  4905   0.208E-02    0.813E-02
RMM:   7    -0.232448018688E+04    0.12132E-04   -0.34483E-04  3871   0.134E-02    0.793E-02
RMM:   8    -0.232448013276E+04    0.54122E-04   -0.90655E-05  3045   0.599E-03    0.184E-02
RMM:   9    -0.232448012996E+04    0.27933E-05   -0.24215E-05  2917   0.410E-03
  15 F= -.23454639E+04 E0= -.23454638E+04  d E =-.254087E-01  mag=     7.9971
       N       E                     dE             d eps       ncg     rms          rms(c)
DAV:   1    -0.232445658416E+04    0.23549E-01   -0.13399E+00  4560   0.104E+00    0.391E-01
RMM:   2    -0.232447944071E+04   -0.22857E-01   -0.23291E-01  5923   0.203E-01    0.257E-01
RMM:   3    -0.232448152778E+04   -0.20871E-02   -0.26786E-02  5155   0.987E-02    0.183E-01
RMM:   4    -0.232448138115E+04    0.14663E-03   -0.24331E-03  4340   0.179E-02    0.115E-01
RMM:   5    -0.232448120805E+04    0.17310E-03   -0.40163E-04  3925   0.113E-02    0.651E-02
RMM:   6    -0.232448116556E+04    0.42489E-04   -0.25111E-04  4008   0.918E-03    0.212E-02
RMM:   7    -0.232448116303E+04    0.25305E-05   -0.29330E-05  2909   0.648E-03
  16 F= -.23454654E+04 E0= -.23454653E+04  d E =-.269179E-01  mag=     7.9972
       N       E                     dE             d eps       ncg     rms          rms(c)
DAV:   1    -0.232447174612E+04    0.94194E-02   -0.13774E+00  4496   0.111E+00    0.397E-01
RMM:   2    -0.232448998278E+04   -0.18237E-01   -0.18877E-01  5769   0.206E-01    0.251E-01
RMM:   3    -0.232449149994E+04   -0.15172E-02   -0.20961E-02  5225   0.953E-02    0.182E-01
RMM:   4    -0.232449129244E+04    0.20750E-03   -0.21239E-03  4890   0.196E-02    0.118E-01
RMM:   5    -0.232449112240E+04    0.17004E-03   -0.48184E-04  4507   0.143E-02    0.627E-02
RMM:   6    -0.232449109557E+04    0.26828E-04   -0.23047E-04  4215   0.101E-02    0.514E-02
RMM:   7    -0.232449107396E+04    0.21609E-04   -0.55971E-05  2917   0.713E-03    0.191E-02
RMM:   8    -0.232449106835E+04    0.56097E-05   -0.14301E-05  2892   0.335E-03
  17 F= -.23454758E+04 E0= -.23454756E+04  d E =-.103246E-01  mag=     7.9977
       N       E                     dE             d eps       ncg     rms          rms(c)
DAV:   1    -0.232446152156E+04    0.29552E-01   -0.23266E+00  4480   0.144E+00    0.514E-01
RMM:   2    -0.232449218058E+04   -0.30659E-01   -0.31808E-01  5748   0.268E-01    0.309E-01
RMM:   3    -0.232449477979E+04   -0.25992E-02   -0.35642E-02  5253   0.123E-01    0.226E-01
RMM:   4    -0.232449449558E+04    0.28421E-03   -0.35846E-03  5215   0.252E-02    0.157E-01
RMM:   5    -0.232449419945E+04    0.29613E-03   -0.77549E-04  4760   0.178E-02    0.822E-02
RMM:   6    -0.232449411984E+04    0.79608E-04   -0.37863E-04  4551   0.125E-02    0.428E-02
RMM:   7    -0.232449410869E+04    0.11153E-04   -0.78544E-05  3014   0.854E-03    0.333E-02
RMM:   8    -0.232449409489E+04    0.13795E-04   -0.26673E-05  2886   0.413E-03    0.124E-02
RMM:   9    -0.232449409236E+04    0.25351E-05   -0.10926E-05  2888   0.299E-03
  18 F= -.23454793E+04 E0= -.23454792E+04  d E =-.138935E-01  mag=     7.9982
       N       E                     dE             d eps       ncg     rms          rms(c)
DAV:   1    -0.232448616172E+04    0.79332E-02   -0.10398E+00  4512   0.922E-01    0.323E-01
RMM:   2    -0.232450054093E+04   -0.14379E-01   -0.14875E-01  5922   0.175E-01    0.202E-01
RMM:   3    -0.232450188371E+04   -0.13428E-02   -0.16169E-02  5237   0.733E-02    0.139E-01
RMM:   4    -0.232450181151E+04    0.72197E-04   -0.16902E-03  3829   0.152E-02    0.926E-02
RMM:   5    -0.232450171622E+04    0.95290E-04   -0.24536E-04  3409   0.974E-03    0.521E-02
RMM:   6    -0.232450169678E+04    0.19439E-04   -0.16808E-04  3791   0.850E-03    0.369E-02
RMM:   7    -0.232450168931E+04    0.74694E-05   -0.33935E-05  2896   0.570E-03
  19 F= -.23454872E+04 E0= -.23454872E+04  d E =-.790735E-02  mag=     7.9986
       N       E                     dE             d eps       ncg     rms          rms(c)
DAV:   1    -0.232437255844E+04    0.12914E+00   -0.93503E+00  4480   0.277E+00    0.968E-01
RMM:   2    -0.232450233665E+04   -0.12978E+00   -0.13486E+00  5962   0.527E-01    0.580E-01
RMM:   3    -0.232451501033E+04   -0.12674E-01   -0.15023E-01  5469   0.220E-01    0.416E-01
RMM:   4    -0.232451447409E+04    0.53624E-03   -0.14984E-02  5795   0.449E-02    0.287E-01
RMM:   5    -0.232451371465E+04    0.75944E-03   -0.19471E-03  4924   0.232E-02    0.176E-01
RMM:   6    -0.232451338614E+04    0.32852E-03   -0.17644E-03  4915   0.220E-02    0.809E-02
RMM:   7    -0.232451337629E+04    0.98510E-05   -0.28297E-04  4012   0.130E-02    0.779E-02
RMM:   8    -0.232451333385E+04    0.42443E-04   -0.96794E-05  3048   0.564E-03    0.224E-02
RMM:   9    -0.232451333691E+04   -0.30675E-05   -0.32845E-05  2900   0.428E-03
  20 F= -.23454998E+04 E0= -.23454998E+04  d E =-.204968E-01  mag=     7.9993
       N       E                     dE             d eps       ncg     rms          rms(c)
DAV:   1    -0.232451268603E+04    0.64781E-03   -0.89970E-01  4544   0.874E-01    0.330E-01
RMM:   2    -0.232452369604E+04   -0.11010E-01   -0.11672E-01  5966   0.179E-01    0.205E-01
RMM:   3    -0.232452455336E+04   -0.85732E-03   -0.11394E-02  5481   0.686E-02    0.163E-01
RMM:   4    -0.232452439190E+04    0.16146E-03   -0.13894E-03  4591   0.172E-02    0.894E-02
RMM:   5    -0.232452430115E+04    0.90746E-04   -0.27142E-04  4169   0.123E-02    0.427E-02
RMM:   6    -0.232452428331E+04    0.17837E-04   -0.98948E-05  3862   0.858E-03    0.271E-02
RMM:   7    -0.232452427834E+04    0.49717E-05   -0.23237E-05  2905   0.577E-03
  21 F= -.23455110E+04 E0= -.23455109E+04  d E =-.111294E-01  mag=     7.9995
       N       E                     dE             d eps       ncg     rms          rms(c)
DAV:   1    -0.232450991466E+04    0.14369E-01   -0.14932E+00  4480   0.113E+00    0.427E-01
RMM:   2    -0.232452820433E+04   -0.18290E-01   -0.19398E-01  5893   0.231E-01    0.268E-01
RMM:   3    -0.232452961963E+04   -0.14153E-02   -0.19175E-02  5482   0.911E-02    0.213E-01
RMM:   4    -0.232452933496E+04    0.28467E-03   -0.23251E-03  5008   0.223E-02    0.115E-01
RMM:   5    -0.232452917952E+04    0.15544E-03   -0.44298E-04  4550   0.156E-02    0.550E-02
RMM:   6    -0.232452914497E+04    0.34557E-04   -0.16620E-04  4277   0.103E-02    0.332E-02
RMM:   7    -0.232452913429E+04    0.10679E-04   -0.33305E-05  2979   0.678E-03    0.123E-02
RMM:   8    -0.232452913321E+04    0.10780E-05   -0.10854E-05  2883   0.346E-03
  22 F= -.23455161E+04 E0= -.23455160E+04  d E =-.162215E-01  mag=     7.9997
       N       E                     dE             d eps       ncg     rms          rms(c)
DAV:   1    -0.232452308847E+04    0.60458E-02   -0.10894E+00  4496   0.925E-01    0.351E-01
RMM:   2    -0.232453646948E+04   -0.13381E-01   -0.14014E-01  6060   0.186E-01    0.219E-01
RMM:   3    -0.232453754229E+04   -0.10728E-02   -0.14117E-02  5544   0.716E-02    0.170E-01
RMM:   4    -0.232453738292E+04    0.15938E-03   -0.16476E-03  4269   0.168E-02    0.858E-02
RMM:   5    -0.232453730330E+04    0.79618E-04   -0.23295E-04  3861   0.108E-02    0.439E-02
RMM:   6    -0.232453729560E+04    0.77020E-05   -0.12344E-04  3905   0.862E-03    0.366E-02
RMM:   7    -0.232453728831E+04    0.72924E-05   -0.33032E-05  2911   0.589E-03
  23 F= -.23455245E+04 E0= -.23455245E+04  d E =-.847332E-02  mag=     7.9997
       N       E                     dE             d eps       ncg     rms          rms(c)
DAV:   1    -0.232449297412E+04    0.44321E-01   -0.37972E+00  4480   0.173E+00    0.658E-01
RMM:   2    -0.232453975396E+04   -0.46780E-01   -0.48952E-01  6007   0.347E-01    0.420E-01
RMM:   3    -0.232454351780E+04   -0.37638E-02   -0.50857E-02  5622   0.137E-01    0.323E-01
RMM:   4    -0.232454293854E+04    0.57925E-03   -0.57596E-03  5305   0.311E-02    0.159E-01
RMM:   5    -0.232454265567E+04    0.28288E-03   -0.82026E-04  4697   0.186E-02    0.827E-02
RMM:   6    -0.232454260854E+04    0.47126E-04   -0.40860E-04  4675   0.138E-02    0.614E-02
RMM:   7    -0.232454258334E+04    0.25201E-04   -0.97449E-05  3218   0.885E-03    0.326E-02
RMM:   8    -0.232454257453E+04    0.88075E-05   -0.25917E-05  2895   0.402E-03
  24 F= -.23455304E+04 E0= -.23455304E+04  d E =-.143476E-01  mag=     7.9998
       N       E                     dE             d eps       ncg     rms          rms(c)
DAV:   1    -0.232452688751E+04    0.15696E-01   -0.20200E+00  4496   0.119E+00    0.440E-01
RMM:   2    -0.232455026542E+04   -0.23378E-01   -0.24268E-01  6048   0.235E-01    0.304E-01
RMM:   3    -0.232455204348E+04   -0.17781E-02   -0.24325E-02  5586   0.905E-02    0.219E-01
RMM:   4    -0.232455179054E+04    0.25294E-03   -0.28373E-03  4749   0.212E-02    0.118E-01
RMM:   5    -0.232455164534E+04    0.14520E-03   -0.43394E-04  4259   0.141E-02    0.567E-02
RMM:   6    -0.232455163011E+04    0.15231E-04   -0.18584E-04  4020   0.996E-03    0.378E-02
RMM:   7    -0.232455162371E+04    0.63936E-05   -0.40747E-05  2922   0.636E-03
  25 F= -.23455403E+04 E0= -.23455402E+04  d E =-.985710E-02  mag=     7.9998
       N       E                     dE             d eps       ncg     rms          rms(c)
DAV:   1    -0.232451522911E+04    0.36401E-01   -0.31702E+00  4480   0.149E+00    0.555E-01
RMM:   2    -0.232455215487E+04   -0.36926E-01   -0.38244E-01  6019   0.294E-01    0.399E-01
RMM:   3    -0.232455487301E+04   -0.27181E-02   -0.38866E-02  5630   0.113E-01    0.287E-01
RMM:   4    -0.232455441380E+04    0.45921E-03   -0.44741E-03  5061   0.268E-02    0.147E-01
RMM:   5    -0.232455418465E+04    0.22916E-03   -0.70391E-04  4603   0.173E-02    0.708E-02
RMM:   6    -0.232455416391E+04    0.20735E-04   -0.29579E-04  4278   0.121E-02    0.484E-02
RMM:   7    -0.232455415547E+04    0.84372E-05   -0.68377E-05  2977   0.742E-03
  26 F= -.23455438E+04 E0= -.23455438E+04  d E =-.133938E-01  mag=     7.9999
       N       E                     dE             d eps       ncg     rms          rms(c)
DAV:   1    -0.232452847257E+04    0.25691E-01   -0.25033E+00  4480   0.139E+00    0.547E-01
RMM:   2    -0.232455904567E+04   -0.30573E-01   -0.31877E-01  5945   0.271E-01    0.384E-01
RMM:   3    -0.232456141770E+04   -0.23720E-02   -0.33620E-02  5574   0.108E-01    0.291E-01
RMM:   4    -0.232456080550E+04    0.61219E-03   -0.37238E-03  5117   0.256E-02    0.140E-01
RMM:   5    -0.232456061924E+04    0.18626E-03   -0.62645E-04  4586   0.163E-02    0.763E-02
RMM:   6    -0.232456061632E+04    0.29248E-05   -0.37370E-04  4334   0.123E-02    0.734E-02
RMM:   7    -0.232456057708E+04    0.39240E-04   -0.95629E-05  3091   0.835E-03    0.256E-02
RMM:   8    -0.232456057380E+04    0.32757E-05   -0.21530E-05  2908   0.388E-03
  27 F= -.23455511E+04 E0= -.23455511E+04  d E =-.729377E-02  mag=     8.0000
       N       E                     dE             d eps       ncg     rms          rms(c)
DAV:   1    -0.232455710698E+04    0.34701E-02   -0.28601E-01  4704   0.470E-01    0.184E-01
RMM:   2    -0.232456059082E+04   -0.34838E-02   -0.36343E-02  6002   0.917E-02    0.124E-01
RMM:   3    -0.232456086066E+04   -0.26983E-03   -0.37442E-03  4682   0.383E-02    0.929E-02
RMM:   4    -0.232456080000E+04    0.60652E-04   -0.41716E-04  3096   0.923E-03    0.474E-02
RMM:   5    -0.232456077596E+04    0.24043E-04   -0.73906E-05  3028   0.663E-03    0.235E-02
RMM:   6    -0.232456077489E+04    0.10680E-05   -0.39899E-05  2984   0.579E-03
  28 F= -.23455516E+04 E0= -.23455516E+04  d E =-.778517E-02  mag=     8.0000
       N       E                     dE             d eps       ncg     rms          rms(c)
DAV:   1    -0.232454519896E+04    0.15577E-01   -0.14999E+00  4512   0.107E+00    0.443E-01
RMM:   2    -0.232456677461E+04   -0.21576E-01   -0.22539E-01  5860   0.214E-01    0.317E-01
RMM:   3    -0.232456852303E+04   -0.17484E-02   -0.24548E-02  5453   0.916E-02    0.227E-01
RMM:   4    -0.232456817658E+04    0.34645E-03   -0.25469E-03  4944   0.210E-02    0.127E-01
RMM:   5    -0.232456804413E+04    0.13245E-03   -0.46567E-04  4256   0.140E-02    0.786E-02
RMM:   6    -0.232456802437E+04    0.19760E-04   -0.28725E-04  4089   0.108E-02    0.601E-02
RMM:   7    -0.232456799563E+04    0.28739E-04   -0.72244E-05  2981   0.766E-03    0.269E-02
RMM:   8    -0.232456798947E+04    0.61599E-05   -0.19032E-05  2905   0.391E-03
  29 F= -.23455593E+04 E0= -.23455593E+04  d E =-.771821E-02  mag=     8.0000
       N       E                     dE             d eps       ncg     rms          rms(c)
DAV:   1    -0.232456082998E+04    0.71656E-02   -0.51422E-01  4528   0.626E-01    0.260E-01
RMM:   2    -0.232456825000E+04   -0.74200E-02   -0.77275E-02  6010   0.126E-01    0.191E-01
RMM:   3    -0.232456882735E+04   -0.57734E-03   -0.83172E-03  5309   0.522E-02    0.134E-01
RMM:   4    -0.232456870484E+04    0.12251E-03   -0.88419E-04  3792   0.125E-02    0.717E-02
RMM:   5    -0.232456865466E+04    0.50179E-04   -0.16220E-04  3403   0.914E-03    0.417E-02
RMM:   6    -0.232456864998E+04    0.46746E-05   -0.88928E-05  3105   0.743E-03
  30 F= -.23455602E+04 E0= -.23455602E+04  d E =-.865948E-02  mag=     8.0000
       N       E                     dE             d eps       ncg     rms          rms(c)
DAV:   1    -0.232454108390E+04    0.27571E-01   -0.20200E+00  4480   0.124E+00    0.516E-01
RMM:   2    -0.232457263212E+04   -0.31548E-01   -0.32415E-01  5993   0.248E-01    0.361E-01
RMM:   3    -0.232457529028E+04   -0.26582E-02   -0.35544E-02  5533   0.106E-01    0.245E-01
RMM:   4    -0.232457492851E+04    0.36177E-03   -0.34780E-03  4977   0.224E-02    0.142E-01
RMM:   5    -0.232457476196E+04    0.16655E-03   -0.55390E-04  4093   0.136E-02    0.947E-02
RMM:   6    -0.232457471885E+04    0.43112E-04   -0.45137E-04  4269   0.120E-02    0.682E-02
RMM:   7    -0.232457468766E+04    0.31187E-04   -0.99080E-05  3113   0.833E-03    0.349E-02
RMM:   8    -0.232457467778E+04    0.98797E-05   -0.27324E-05  2917   0.450E-03
  31 F= -.23455669E+04 E0= -.23455669E+04  d E =-.663421E-02  mag=     8.0000
       N       E                     dE             d eps       ncg     rms          rms(c)
DAV:   1    -0.232447729922E+04    0.97388E-01   -0.57765E+00  4480   0.210E+00    0.876E-01
RMM:   2    -0.232456831446E+04   -0.91015E-01   -0.93210E-01  5908   0.419E-01    0.650E-01
RMM:   3    -0.232457544599E+04   -0.71315E-02   -0.10476E-01  5568   0.180E-01    0.418E-01
RMM:   4    -0.232457442950E+04    0.10165E-02   -0.99615E-03  5529   0.377E-02    0.239E-01
RMM:   5    -0.232457400989E+04    0.41961E-03   -0.15657E-03  4793   0.215E-02    0.177E-01
RMM:   6    -0.232457378954E+04    0.22035E-03   -0.13867E-03  4845   0.191E-02    0.111E-01
RMM:   7    -0.232457370814E+04    0.81400E-04   -0.27836E-04  4217   0.125E-02    0.577E-02
RMM:   8    -0.232457368101E+04    0.27130E-04   -0.84094E-05  3109   0.603E-03    0.244E-02
RMM:   9    -0.232457367447E+04    0.65412E-05   -0.32309E-05  2892   0.491E-03
  32 F= -.23455668E+04 E0= -.23455668E+04  d E =-.657464E-02  mag=     8.0000
       N       E                     dE             d eps       ncg     rms          rms(c)
DAV:   1    -0.232455179747E+04    0.21884E-01   -0.14604E+00  4512   0.106E+00    0.438E-01
RMM:   2    -0.232457455653E+04   -0.22759E-01   -0.23322E-01  5992   0.209E-01    0.313E-01
RMM:   3    -0.232457641072E+04   -0.18542E-02   -0.24790E-02  5510   0.856E-02    0.207E-01
RMM:   4    -0.232457612066E+04    0.29006E-03   -0.25513E-03  4681   0.189E-02    0.115E-01
RMM:   5    -0.232457598244E+04    0.13821E-03   -0.42107E-04  4141   0.125E-02    0.615E-02
RMM:   6    -0.232457598415E+04   -0.17026E-05   -0.24132E-04  4000   0.101E-02    0.619E-02
RMM:   7    -0.232457595712E+04    0.27026E-04   -0.58623E-05  2924   0.679E-03    0.170E-02
RMM:   8    -0.232457595402E+04    0.31003E-05   -0.15201E-05  2901   0.310E-03
  33 F= -.23455686E+04 E0= -.23455686E+04  d E =-.839269E-02  mag=     8.0000
       N       E                     dE             d eps       ncg     rms          rms(c)
DAV:   1    -0.232456178196E+04    0.14175E-01   -0.11674E+00  4512   0.922E-01    0.384E-01
RMM:   2    -0.232458045574E+04   -0.18674E-01   -0.19191E-01  5979   0.187E-01    0.276E-01
RMM:   3    -0.232458200026E+04   -0.15445E-02   -0.20791E-02  5443   0.807E-02    0.177E-01
RMM:   4    -0.232458181544E+04    0.18482E-03   -0.20310E-03  4239   0.168E-02    0.104E-01
RMM:   5    -0.232458171077E+04    0.10467E-03   -0.33763E-04  3500   0.106E-02    0.670E-02
RMM:   6    -0.232458169188E+04    0.18897E-04   -0.24167E-04  3826   0.933E-03    0.535E-02
RMM:   7    -0.232458167293E+04    0.18950E-04   -0.59244E-05  2958   0.659E-03    0.259E-02
RMM:   8    -0.232458166768E+04    0.52497E-05   -0.16217E-05  2908   0.374E-03
  34 F= -.23455746E+04 E0= -.23455746E+04  d E =-.597517E-02  mag=     8.0000
       N       E                     dE             d eps       ncg     rms          rms(c)
DAV:   1    -0.232451635950E+04    0.65313E-01   -0.40258E+00  4480   0.171E+00    0.717E-01
RMM:   2    -0.232458105906E+04   -0.64700E-01   -0.66531E-01  5951   0.350E-01    0.521E-01
RMM:   3    -0.232458645160E+04   -0.53925E-02   -0.74983E-02  5576   0.145E-01    0.325E-01
RMM:   4    -0.232458589164E+04    0.55996E-03   -0.70793E-03  5311   0.304E-02    0.194E-01
RMM:   5    -0.232458557159E+04    0.32005E-03   -0.11284E-03  4507   0.177E-02    0.141E-01
RMM:   6    -0.232458544794E+04    0.12364E-03   -0.91852E-04  4693   0.155E-02    0.977E-02
RMM:   7    -0.232458538822E+04    0.59728E-04   -0.19713E-04  3614   0.105E-02    0.503E-02
RMM:   8    -0.232458536990E+04    0.18314E-04   -0.58691E-05  2974   0.540E-03    0.219E-02
RMM:   9    -0.232458536645E+04    0.34543E-05   -0.24688E-05  2882   0.430E-03
  35 F= -.23455787E+04 E0= -.23455787E+04  d E =-.101134E-01  mag=     8.0000
       N       E                     dE             d eps       ncg     rms          rms(c)
DAV:   1    -0.232456265929E+04    0.22711E-01   -0.16463E+00  4480   0.111E+00    0.463E-01
RMM:   2    -0.232458927648E+04   -0.26617E-01   -0.27373E-01  6031   0.229E-01    0.327E-01
RMM:   3    -0.232459151045E+04   -0.22340E-02   -0.29598E-02  5586   0.938E-02    0.207E-01
RMM:   4    -0.232459127103E+04    0.23942E-03   -0.28893E-03  4597   0.200E-02    0.119E-01
RMM:   5    -0.232459113242E+04    0.13861E-03   -0.45014E-04  3695   0.122E-02    0.745E-02
RMM:   6    -0.232459112009E+04    0.12331E-04   -0.30237E-04  4053   0.103E-02    0.652E-02
RMM:   7    -0.232459109342E+04    0.26668E-04   -0.82198E-05  2963   0.722E-03    0.314E-02
RMM:   8    -0.232459108677E+04    0.66492E-05   -0.20707E-05  2905   0.379E-03
  36 F= -.23455842E+04 E0= -.23455842E+04  d E =-.549606E-02  mag=     8.0000
       N       E                     dE             d eps       ncg     rms          rms(c)
DAV:   1    -0.232454595283E+04    0.45141E-01   -0.27682E+00  4480   0.144E+00    0.601E-01
RMM:   2    -0.232459062417E+04   -0.44671E-01   -0.46019E-01  5998   0.298E-01    0.423E-01
RMM:   3    -0.232459448629E+04   -0.38621E-02   -0.51224E-02  5619   0.122E-01    0.266E-01
RMM:   4    -0.232459411197E+04    0.37432E-03   -0.48659E-03  5045   0.257E-02    0.155E-01
RMM:   5    -0.232459388500E+04    0.22697E-03   -0.76912E-04  4167   0.152E-02    0.102E-01
RMM:   6    -0.232459384850E+04    0.36498E-04   -0.53935E-04  4395   0.127E-02    0.865E-02
RMM:   7    -0.232459380098E+04    0.47522E-04   -0.13835E-04  3116   0.882E-03    0.417E-02
RMM:   8    -0.232459378815E+04    0.12824E-04   -0.37323E-05  2924   0.457E-03    0.173E-02
RMM:   9    -0.232459378535E+04    0.28012E-05   -0.16305E-05  2878   0.341E-03
  37 F= -.23455866E+04 E0= -.23455866E+04  d E =-.786157E-02  mag=     8.0000
       N       E                     dE             d eps       ncg     rms          rms(c)
DAV:   1    -0.232456563924E+04    0.28149E-01   -0.19916E+00  4480   0.125E+00    0.520E-01
RMM:   2    -0.232459729195E+04   -0.31653E-01   -0.32683E-01  5985   0.257E-01    0.366E-01
RMM:   3    -0.232459994550E+04   -0.26536E-02   -0.35393E-02  5620   0.105E-01    0.239E-01
RMM:   4    -0.232459958154E+04    0.36396E-03   -0.34859E-03  4920   0.228E-02    0.134E-01
RMM:   5    -0.232459941789E+04    0.16365E-03   -0.55272E-04  4061   0.138E-02    0.846E-02
RMM:   6    -0.232459939798E+04    0.19915E-04   -0.38256E-04  4261   0.115E-02    0.770E-02
RMM:   7    -0.232459935492E+04    0.43058E-04   -0.10093E-04  3057   0.822E-03    0.313E-02
RMM:   8    -0.232459934623E+04    0.86881E-05   -0.25268E-05  2908   0.420E-03
  38 F= -.23455918E+04 E0= -.23455918E+04  d E =-.523694E-02  mag=     8.0000
       N       E                     dE             d eps       ncg     rms          rms(c)
DAV:   1    -0.232458698662E+04    0.12368E-01   -0.79433E-01  4528   0.791E-01    0.328E-01
RMM:   2    -0.232459959513E+04   -0.12609E-01   -0.13037E-01  6043   0.162E-01    0.225E-01
RMM:   3    -0.232460064855E+04   -0.10534E-02   -0.13808E-02  5497   0.650E-02    0.147E-01
RMM:   4    -0.232460051423E+04    0.13432E-03   -0.13885E-03  3754   0.144E-02    0.835E-02
RMM:   5    -0.232460044215E+04    0.72077E-04   -0.21714E-04  3274   0.950E-03    0.472E-02
RMM:   6    -0.232460043518E+04    0.69768E-05   -0.13871E-04  3736   0.813E-03    0.416E-02
RMM:   7    -0.232460042311E+04    0.12069E-04   -0.37571E-05  2908   0.593E-03    0.217E-02
RMM:   8    -0.232460041917E+04    0.39393E-05   -0.10983E-05  2892   0.300E-03
  39 F= -.23455927E+04 E0= -.23455927E+04  d E =-.608310E-02  mag=     8.0000
       N       E                     dE             d eps       ncg     rms          rms(c)
DAV:   1    -0.232457331812E+04    0.27105E-01   -0.21209E+00  4480   0.128E+00    0.514E-01
RMM:   2    -0.232460477684E+04   -0.31459E-01   -0.32439E-01  5987   0.255E-01    0.368E-01
RMM:   3    -0.232460735051E+04   -0.25737E-02   -0.35293E-02  5590   0.104E-01    0.245E-01
RMM:   4    -0.232460697517E+04    0.37534E-03   -0.35651E-03  4906   0.225E-02    0.139E-01
RMM:   5    -0.232460682578E+04    0.14939E-03   -0.53347E-04  3865   0.133E-02    0.922E-02
RMM:   6    -0.232460680518E+04    0.20599E-04   -0.43393E-04  4180   0.118E-02    0.790E-02
RMM:   7    -0.232460675925E+04    0.45929E-04   -0.99295E-05  3101   0.800E-03    0.276E-02
RMM:   8    -0.232460675309E+04    0.61668E-05   -0.24385E-05  2911   0.430E-03
  40 F= -.23455991E+04 E0= -.23455990E+04  d E =-.635989E-02  mag=     8.0000
       N       E                     dE             d eps       ncg     rms          rms(c)
DAV:   1    -0.232456144117E+04    0.45318E-01   -0.30281E+00  4480   0.153E+00    0.614E-01
RMM:   2    -0.232460640470E+04   -0.44964E-01   -0.46377E-01  6007   0.305E-01    0.442E-01
RMM:   3    -0.232461010877E+04   -0.37041E-02   -0.50845E-02  5651   0.121E-01    0.296E-01
RMM:   4    -0.232460956610E+04    0.54267E-03   -0.51153E-03  5195   0.269E-02    0.168E-01
RMM:   5    -0.232460935447E+04    0.21164E-03   -0.76938E-04  4169   0.153E-02    0.115E-01
RMM:   6    -0.232460931215E+04    0.42318E-04   -0.64350E-04  4385   0.137E-02    0.946E-02
RMM:   7    -0.232460924690E+04    0.65248E-04   -0.14574E-04  3306   0.930E-03    0.339E-02
RMM:   8    -0.232460923748E+04    0.94214E-05   -0.35331E-05  2929   0.487E-03
  41 F= -.23456015E+04 E0= -.23456015E+04  d E =-.881517E-02  mag=     8.0000
       N       E                     dE             d eps       ncg     rms          rms(c)
DAV:   1    -0.232459191055E+04    0.17336E-01   -0.15924E+00  4496   0.109E+00    0.423E-01
RMM:   2    -0.232461332009E+04   -0.21410E-01   -0.21931E-01  6045   0.213E-01    0.313E-01
RMM:   3    -0.232461494105E+04   -0.16210E-02   -0.23226E-02  5593   0.855E-02    0.210E-01
RMM:   4    -0.232461467872E+04    0.26233E-03   -0.24869E-03  4494   0.189E-02    0.117E-01
RMM:   5    -0.232461458143E+04    0.97290E-04   -0.37225E-04  3638   0.116E-02    0.815E-02
RMM:   6    -0.232461456474E+04    0.16697E-04   -0.29657E-04  3792   0.102E-02    0.648E-02
RMM:   7    -0.232461453627E+04    0.28463E-04   -0.65086E-05  3004   0.695E-03    0.208E-02
RMM:   8    -0.232461453367E+04    0.26074E-05   -0.17056E-05  2910   0.394E-03
  42 F= -.23456068E+04 E0= -.23456068E+04  d E =-.526975E-02  mag=     8.0000
       N       E                     dE             d eps       ncg     rms          rms(c)
DAV:   1    -0.232453351890E+04    0.81017E-01   -0.59490E+00  4480   0.211E+00    0.819E-01
RMM:   2    -0.232461384516E+04   -0.80326E-01   -0.82275E-01  6004   0.414E-01    0.615E-01
RMM:   3    -0.232462000110E+04   -0.61559E-02   -0.89621E-02  5688   0.162E-01    0.414E-01
RMM:   4    -0.232461901258E+04    0.98852E-03   -0.94083E-03  5465   0.362E-02    0.232E-01
RMM:   5    -0.232461866041E+04    0.35217E-03   -0.14054E-03  4676   0.199E-02    0.172E-01
RMM:   6    -0.232461852690E+04    0.13351E-03   -0.12102E-03  4711   0.180E-02    0.118E-01
RMM:   7    -0.232461843167E+04    0.95228E-04   -0.23555E-04  3874   0.116E-02    0.430E-02
RMM:   8    -0.232461841736E+04    0.14306E-04   -0.63819E-05  2980   0.548E-03    0.192E-02
RMM:   9    -0.232461841447E+04    0.28908E-05   -0.22864E-05  2894   0.411E-03
  43 F= -.23456105E+04 E0= -.23456105E+04  d E =-.900640E-02  mag=     8.0000
       N       E                     dE             d eps       ncg     rms          rms(c)
DAV:   1    -0.232459775928E+04    0.20658E-01   -0.19703E+00  4480   0.121E+00    0.469E-01
RMM:   2    -0.232462270303E+04   -0.24944E-01   -0.25573E-01  5969   0.239E-01    0.360E-01
RMM:   3    -0.232462443624E+04   -0.17332E-02   -0.27169E-02  5585   0.950E-02    0.240E-01
RMM:   4    -0.232462409581E+04    0.34044E-03   -0.29643E-03  4916   0.219E-02    0.130E-01
RMM:   5    -0.232462398434E+04    0.11146E-03   -0.51545E-04  4123   0.137E-02    0.100E-01
RMM:   6    -0.232462394175E+04    0.42598E-04   -0.36004E-04  4039   0.111E-02    0.655E-02
RMM:   7    -0.232462391259E+04    0.29158E-04   -0.68809E-05  3030   0.736E-03    0.219E-02
RMM:   8    -0.232462390926E+04    0.33256E-05   -0.19478E-05  2924   0.403E-03
  44 F= -.23456157E+04 E0= -.23456157E+04  d E =-.518132E-02  mag=     8.0000
       N       E                     dE             d eps       ncg     rms          rms(c)
DAV:   1    -0.232461380996E+04    0.10103E-01   -0.85901E-01  4512   0.800E-01    0.309E-01
RMM:   2    -0.232462464264E+04   -0.10833E-01   -0.11124E-01  6053   0.158E-01    0.232E-01
RMM:   3    -0.232462543103E+04   -0.78838E-03   -0.11709E-02  5413   0.616E-02    0.157E-01
RMM:   4    -0.232462528610E+04    0.14493E-03   -0.12753E-03  3985   0.146E-02    0.852E-02
RMM:   5    -0.232462523482E+04    0.51277E-04   -0.22188E-04  3368   0.975E-03    0.621E-02
RMM:   6    -0.232462522146E+04    0.13357E-04   -0.14779E-04  3197   0.832E-03    0.449E-02
RMM:   7    -0.232462520826E+04    0.13202E-04   -0.34378E-05  2938   0.589E-03    0.145E-02
RMM:   8    -0.232462520676E+04    0.15037E-05   -0.10037E-05  2899   0.346E-03
  45 F= -.23456168E+04 E0= -.23456168E+04  d E =-.624826E-02  mag=     8.0000
       N       E                     dE             d eps       ncg     rms          rms(c)
DAV:   1    -0.232462018057E+04    0.50277E-02   -0.77838E-01  4496   0.799E-01    0.298E-01
RMM:   2    -0.232462894341E+04   -0.87628E-02   -0.90801E-02  5893   0.157E-01    0.214E-01
RMM:   3    -0.232462945608E+04   -0.51267E-03   -0.91053E-03  5433   0.601E-02    0.153E-01
RMM:   4    -0.232462928329E+04    0.17279E-03   -0.10212E-03  4286   0.149E-02    0.783E-02
RMM:   5    -0.232462923080E+04    0.52487E-04   -0.24103E-04  3878   0.107E-02    0.527E-02
RMM:   6    -0.232462922539E+04    0.54133E-05   -0.12116E-04  3141   0.809E-03    0.449E-02
RMM:   7    -0.232462921138E+04    0.14005E-04   -0.28980E-05  2911   0.556E-03    0.120E-02
RMM:   8    -0.232462920998E+04    0.13996E-05   -0.86078E-06  2889   0.318E-03
  46 F= -.23456204E+04 E0= -.23456204E+04  d E =-.364617E-02  mag=     8.0000
       N       E                     dE             d eps       ncg     rms          rms(c)
DAV:   1    -0.232462318451E+04    0.60269E-02   -0.64073E-01  4512   0.725E-01    0.271E-01
RMM:   2    -0.232463040285E+04   -0.72183E-02   -0.74785E-02  5893   0.143E-01    0.194E-01
RMM:   3    -0.232463082629E+04   -0.42344E-03   -0.74277E-03  5377   0.528E-02    0.138E-01
RMM:   4    -0.232463068373E+04    0.14257E-03   -0.83783E-04  4045   0.135E-02    0.711E-02
RMM:   5    -0.232463063845E+04    0.45274E-04   -0.19630E-04  3676   0.992E-03    0.469E-02
RMM:   6    -0.232463063457E+04    0.38837E-05   -0.99035E-05  3048   0.770E-03
  47 F= -.23456215E+04 E0= -.23456215E+04  d E =-.473308E-02  mag=     8.0000
       N       E                     dE             d eps       ncg     rms          rms(c)
DAV:   1    -0.232462713639E+04    0.35021E-02   -0.69658E-01  4496   0.741E-01    0.261E-01
RMM:   2    -0.232463411698E+04   -0.69806E-02   -0.72776E-02  6112   0.143E-01    0.181E-01
RMM:   3    -0.232463458273E+04   -0.46575E-03   -0.74351E-03  5467   0.532E-02    0.130E-01
RMM:   4    -0.232463447531E+04    0.10742E-03   -0.84457E-04  3710   0.132E-02    0.743E-02
RMM:   5    -0.232463443653E+04    0.38781E-04   -0.19608E-04  3512   0.934E-03    0.530E-02
RMM:   6    -0.232463442769E+04    0.88435E-05   -0.10337E-04  3048   0.766E-03    0.364E-02
RMM:   7    -0.232463441906E+04    0.86301E-05   -0.24449E-05  2910   0.517E-03
  48 F= -.23456249E+04 E0= -.23456249E+04  d E =-.340097E-02  mag=     8.0000
       N       E                     dE             d eps       ncg     rms          rms(c)
DAV:   1    -0.232461802579E+04    0.16402E-01   -0.18313E+00  4480   0.120E+00    0.425E-01
RMM:   2    -0.232463665829E+04   -0.18633E-01   -0.19296E-01  5947   0.231E-01    0.323E-01
RMM:   3    -0.232463762265E+04   -0.96436E-03   -0.18816E-02  5568   0.864E-02    0.221E-01
RMM:   4    -0.232463726581E+04    0.35684E-03   -0.22077E-03  4848   0.211E-02    0.114E-01
RMM:   5    -0.232463714047E+04    0.12534E-03   -0.50971E-04  4419   0.150E-02    0.657E-02
RMM:   6    -0.232463714821E+04   -0.77436E-05   -0.23654E-04  3759   0.104E-02    0.695E-02
RMM:   7    -0.232463711247E+04    0.35737E-04   -0.59789E-05  2947   0.642E-03    0.158E-02
RMM:   8    -0.232463710906E+04    0.34119E-05   -0.14839E-05  2908   0.350E-03
  49 F= -.23456269E+04 E0= -.23456269E+04  d E =-.544782E-02  mag=     8.0000
       N       E                     dE             d eps       ncg     rms          rms(c)
DAV:   1    -0.232463172629E+04    0.53862E-02   -0.88377E-01  4512   0.827E-01    0.290E-01
RMM:   2    -0.232464088077E+04   -0.91545E-02   -0.94926E-02  5925   0.158E-01    0.214E-01
RMM:   3    -0.232464143911E+04   -0.55834E-03   -0.96433E-03  5363   0.611E-02    0.145E-01
RMM:   4    -0.232464129671E+04    0.14240E-03   -0.10618E-03  4111   0.145E-02    0.811E-02
RMM:   5    -0.232464123361E+04    0.63101E-04   -0.24696E-04  3716   0.107E-02    0.395E-02
RMM:   6    -0.232464123987E+04   -0.62599E-05   -0.10079E-04  3133   0.770E-03    0.427E-02
RMM:   7    -0.232464122706E+04    0.12812E-04   -0.28068E-05  2901   0.526E-03    0.132E-02
RMM:   8    -0.232464122553E+04    0.15300E-05   -0.73184E-06  2883   0.254E-03
  50 F= -.23456305E+04 E0= -.23456305E+04  d E =-.357940E-02  mag=     8.0000
       N       E                     dE             d eps       ncg     rms          rms(c)
DAV:   1    -0.232461402849E+04    0.27199E-01   -0.28540E+00  4480   0.148E+00    0.521E-01
RMM:   2    -0.232464364694E+04   -0.29618E-01   -0.30699E-01  5892   0.284E-01    0.392E-01
RMM:   3    -0.232464535735E+04   -0.17104E-02   -0.31600E-02  5535   0.108E-01    0.267E-01
RMM:   4    -0.232464486900E+04    0.48835E-03   -0.34454E-03  5053   0.256E-02    0.146E-01
RMM:   5    -0.232464466243E+04    0.20658E-03   -0.81800E-04  4654   0.182E-02    0.711E-02
RMM:   6    -0.232464467994E+04   -0.17513E-04   -0.33059E-04  4237   0.117E-02    0.743E-02
RMM:   7    -0.232464464038E+04    0.39556E-04   -0.82849E-05  2962   0.716E-03    0.254E-02
RMM:   8    -0.232464463394E+04    0.64381E-05   -0.20631E-05  2908   0.333E-03
  51 F= -.23456329E+04 E0= -.23456329E+04  d E =-.599833E-02  mag=     8.0000
       N       E                     dE             d eps       ncg     rms          rms(c)
DAV:   1    -0.232463256068E+04    0.12080E-01   -0.15123E+00  4480   0.109E+00    0.388E-01
RMM:   2    -0.232464862437E+04   -0.16064E-01   -0.16650E-01  5870   0.211E-01    0.284E-01
RMM:   3    -0.232464958983E+04   -0.96547E-03   -0.17055E-02  5459   0.840E-02    0.194E-01
RMM:   4    -0.232464933007E+04    0.25976E-03   -0.18761E-03  4809   0.193E-02    0.108E-01
RMM:   5    -0.232464921356E+04    0.11651E-03   -0.44860E-04  4281   0.141E-02    0.569E-02
RMM:   6    -0.232464922159E+04   -0.80286E-05   -0.20430E-04  3795   0.961E-03    0.639E-02
RMM:   7    -0.232464919190E+04    0.29688E-04   -0.51950E-05  2925   0.643E-03    0.181E-02
RMM:   8    -0.232464918821E+04    0.36933E-05   -0.13501E-05  2906   0.303E-03
  52 F= -.23456366E+04 E0= -.23456366E+04  d E =-.367359E-02  mag=     8.0000
       N       E                     dE             d eps       ncg     rms          rms(c)
DAV:   1    -0.232464585631E+04    0.33356E-02   -0.38817E-01  4576   0.553E-01    0.196E-01
RMM:   2    -0.232464997347E+04   -0.41172E-02   -0.42676E-02  5896   0.107E-01    0.142E-01
RMM:   3    -0.232465021665E+04   -0.24318E-03   -0.42866E-03  4852   0.421E-02    0.969E-02
RMM:   4    -0.232465015273E+04    0.63924E-04   -0.47768E-04  3313   0.102E-02    0.547E-02
RMM:   5    -0.232465012212E+04    0.30604E-04   -0.11370E-04  3208   0.777E-03    0.300E-02
RMM:   6    -0.232465012343E+04   -0.13027E-05   -0.54443E-05  2956   0.630E-03
  53 F= -.23456371E+04 E0= -.23456371E+04  d E =-.415599E-02  mag=     8.0000
       N       E                     dE             d eps       ncg     rms          rms(c)
DAV:   1    -0.232464009955E+04    0.10023E-01   -0.12504E+00  4464   0.102E+00    0.358E-01
RMM:   2    -0.232465409523E+04   -0.13996E-01   -0.14501E-01  5853   0.195E-01    0.246E-01
RMM:   3    -0.232465505661E+04   -0.96138E-03   -0.15066E-02  5446   0.787E-02    0.170E-01
RMM:   4    -0.232465489570E+04    0.16091E-03   -0.16395E-03  4635   0.177E-02    0.101E-01
RMM:   5    -0.232465480893E+04    0.86769E-04   -0.34585E-04  3981   0.122E-02    0.687E-02
RMM:   6    -0.232465479689E+04    0.12045E-04   -0.19583E-04  3457   0.935E-03    0.572E-02
RMM:   7    -0.232465477517E+04    0.21716E-04   -0.45140E-05  2943   0.637E-03    0.183E-02
RMM:   8    -0.232465477224E+04    0.29265E-05   -0.11573E-05  2905   0.344E-03
  54 F= -.23456409E+04 E0= -.23456409E+04  d E =-.380398E-02  mag=     8.0000
       N       E                     dE             d eps       ncg     rms          rms(c)
DAV:   1    -0.232462157996E+04    0.33195E-01   -0.30071E+00  4464   0.158E+00    0.556E-01
RMM:   2    -0.232465552217E+04   -0.33942E-01   -0.35033E-01  5872   0.305E-01    0.401E-01
RMM:   3    -0.232465771079E+04   -0.21886E-02   -0.36717E-02  5541   0.121E-01    0.270E-01
RMM:   4    -0.232465726993E+04    0.44086E-03   -0.39165E-03  5182   0.273E-02    0.152E-01
RMM:   5    -0.232465702351E+04    0.24641E-03   -0.82115E-04  4735   0.188E-02    0.799E-02
RMM:   6    -0.232465703860E+04   -0.15086E-04   -0.40092E-04  4422   0.128E-02    0.900E-02
RMM:   7    -0.232465697940E+04    0.59200E-04   -0.10291E-04  3031   0.791E-03    0.278E-02
RMM:   8    -0.232465697176E+04    0.76392E-05   -0.24454E-05  2932   0.382E-03
  55 F= -.23456418E+04 E0= -.23456418E+04  d E =-.466235E-02  mag=     8.0000
       N       E                     dE             d eps       ncg     rms          rms(c)
DAV:   1    -0.232465240773E+04    0.45717E-02   -0.38263E-01  4496   0.565E-01    0.197E-01
RMM:   2    -0.232465670871E+04   -0.43010E-02   -0.44278E-02  5855   0.107E-01    0.144E-01
RMM:   3    -0.232465697294E+04   -0.26422E-03   -0.44698E-03  4898   0.426E-02    0.973E-02
RMM:   4    -0.232465690904E+04    0.63901E-04   -0.48378E-04  3299   0.102E-02    0.548E-02
RMM:   5    -0.232465688637E+04    0.22666E-04   -0.10244E-04  3160   0.728E-03    0.441E-02
RMM:   6    -0.232465687762E+04    0.87487E-05   -0.64173E-05  2934   0.637E-03
  56 F= -.23456421E+04 E0= -.23456421E+04  d E =-.505134E-02  mag=     8.0000
       N       E                     dE             d eps       ncg     rms          rms(c)
DAV:   1    -0.232464905699E+04    0.78294E-02   -0.87977E-01  4496   0.842E-01    0.307E-01
RMM:   2    -0.232466002254E+04   -0.10966E-01   -0.11290E-01  5998   0.166E-01    0.225E-01
RMM:   3    -0.232466076281E+04   -0.74026E-03   -0.11517E-02  5407   0.684E-02    0.145E-01
RMM:   4    -0.232466063596E+04    0.12685E-03   -0.12316E-03  4095   0.151E-02    0.819E-02
RMM:   5    -0.232466055634E+04    0.79615E-04   -0.22493E-04  3817   0.105E-02    0.356E-02
RMM:   6    -0.232466055655E+04   -0.20997E-06   -0.97958E-05  3356   0.781E-03
  57 F= -.23456452E+04 E0= -.23456452E+04  d E =-.305094E-02  mag=     8.0000
       N       E                     dE             d eps       ncg     rms          rms(c)
DAV:   1    -0.232464654651E+04    0.14010E-01   -0.12085E+00  4464   0.989E-01    0.363E-01
RMM:   2    -0.232466187279E+04   -0.15326E-01   -0.15875E-01  6058   0.196E-01    0.249E-01
RMM:   3    -0.232466301043E+04   -0.11376E-02   -0.16400E-02  5581   0.744E-02    0.169E-01
RMM:   4    -0.232466285846E+04    0.15198E-03   -0.17277E-03  4414   0.172E-02    0.100E-01
RMM:   5    -0.232466276978E+04    0.88677E-04   -0.32094E-04  3936   0.114E-02    0.687E-02
RMM:   6    -0.232466275894E+04    0.10840E-04   -0.20765E-04  3416   0.928E-03    0.591E-02
RMM:   7    -0.232466273422E+04    0.24714E-04   -0.47423E-05  2971   0.627E-03    0.164E-02
RMM:   8    -0.232466273166E+04    0.25645E-05   -0.12558E-05  2906   0.375E-03
  58 F= -.23456466E+04 E0= -.23456466E+04  d E =-.447501E-02  mag=     8.0000
       N       E                     dE             d eps       ncg     rms          rms(c)
DAV:   1    -0.232465873043E+04    0.40038E-02   -0.54090E-01  4496   0.670E-01    0.250E-01
RMM:   2    -0.232466554692E+04   -0.68165E-02   -0.70609E-02  5919   0.135E-01    0.167E-01
RMM:   3    -0.232466604007E+04   -0.49315E-03   -0.70662E-03  5319   0.535E-02    0.112E-01
RMM:   4    -0.232466597160E+04    0.68466E-04   -0.76043E-04  3797   0.125E-02    0.640E-02
RMM:   5    -0.232466593158E+04    0.40024E-04   -0.13546E-04  3436   0.899E-03    0.331E-02
RMM:   6    -0.232466593718E+04   -0.56004E-05   -0.73315E-05  3061   0.714E-03
  59 F= -.23456492E+04 E0= -.23456492E+04  d E =-.257470E-02  mag=     8.0000
       N       E                     dE             d eps       ncg     rms          rms(c)
DAV:   1    -0.232465800516E+04    0.79264E-02   -0.71364E-01  4464   0.769E-01    0.288E-01
RMM:   2    -0.232466699013E+04   -0.89850E-02   -0.93418E-02  6065   0.156E-01    0.183E-01
RMM:   3    -0.232466768556E+04   -0.69542E-03   -0.94563E-03  5525   0.583E-02    0.125E-01
RMM:   4    -0.232466760962E+04    0.75940E-04   -0.10097E-03  3986   0.141E-02    0.765E-02
RMM:   5    -0.232466756323E+04    0.46383E-04   -0.18895E-04  3622   0.966E-03    0.483E-02
RMM:   6    -0.232466756218E+04    0.10525E-05   -0.10848E-04  3126   0.794E-03    0.447E-02
RMM:   7    -0.232466754744E+04    0.14746E-04   -0.30065E-05  2914   0.564E-03    0.131E-02
RMM:   8    -0.232466754601E+04    0.14298E-05   -0.84856E-06  2884   0.320E-03
  60 F= -.23456501E+04 E0= -.23456501E+04  d E =-.345205E-02  mag=     8.0000
       N       E                     dE             d eps       ncg     rms          rms(c)
DAV:   1    -0.232466047349E+04    0.70739E-02   -0.71412E-01  4480   0.749E-01    0.276E-01
RMM:   2    -0.232466995743E+04   -0.94839E-02   -0.98205E-02  5983   0.150E-01    0.191E-01
RMM:   3    -0.232467066918E+04   -0.71175E-03   -0.96881E-03  5315   0.592E-02    0.126E-01
RMM:   4    -0.232467059820E+04    0.70978E-04   -0.10391E-03  3550   0.132E-02    0.721E-02
RMM:   5    -0.232467055660E+04    0.41596E-04   -0.15730E-04  3281   0.843E-03    0.509E-02
RMM:   6    -0.232467055231E+04    0.42926E-05   -0.11401E-04  3066   0.756E-03    0.467E-02
RMM:   7    -0.232467053632E+04    0.15991E-04   -0.30157E-05  2923   0.552E-03    0.106E-02
RMM:   8    -0.232467053554E+04    0.78153E-06   -0.78715E-06  2877   0.329E-03
  61 F= -.23456521E+04 E0= -.23456521E+04  d E =-.201579E-02  mag=     8.0000
       N       E                     dE             d eps       ncg     rms          rms(c)
DAV:   1    -0.232466476687E+04    0.57694E-02   -0.50537E-01  4496   0.629E-01    0.232E-01
RMM:   2    -0.232467147077E+04   -0.67039E-02   -0.69410E-02  5965   0.126E-01    0.160E-01
RMM:   3    -0.232467196888E+04   -0.49811E-03   -0.68183E-03  5080   0.473E-02    0.105E-01
RMM:   4    -0.232467192023E+04    0.48654E-04   -0.73320E-04  3251   0.111E-02    0.606E-02
RMM:   5    -0.232467189019E+04    0.30041E-04   -0.11143E-04  3111   0.718E-03    0.427E-02
RMM:   6    -0.232467188703E+04    0.31607E-05   -0.80888E-05  2994   0.660E-03
  62 F= -.23456526E+04 E0= -.23456526E+04  d E =-.254378E-02  mag=     8.0000
       N       E                     dE             d eps       ncg     rms          rms(c)
DAV:   1    -0.232466995560E+04    0.19346E-02   -0.30536E-01  4512   0.545E-01    0.200E-01
RMM:   2    -0.232467373829E+04   -0.37827E-02   -0.39907E-02  5850   0.110E-01    0.116E-01
RMM:   3    -0.232467401973E+04   -0.28144E-03   -0.39594E-03  5142   0.443E-02    0.841E-02
RMM:   4    -0.232467399123E+04    0.28501E-04   -0.45207E-04  3437   0.107E-02    0.568E-02
RMM:   5    -0.232467396725E+04    0.23986E-04   -0.94271E-05  3150   0.776E-03    0.427E-02
RMM:   6    -0.232467395282E+04    0.14427E-04   -0.62455E-05  3030   0.680E-03    0.227E-02
RMM:   7    -0.232467394849E+04    0.43318E-05   -0.14990E-05  2890   0.509E-03
  63 F= -.23456541E+04 E0= -.23456541E+04  d E =-.145772E-02  mag=     8.0000
       N       E                     dE             d eps       ncg     rms          rms(c)
DAV:   1    -0.232467228427E+04    0.16685E-02   -0.16537E-01  4576   0.401E-01    0.148E-01
RMM:   2    -0.232467435410E+04   -0.20698E-02   -0.21669E-02  5885   0.814E-02    0.967E-02
RMM:   3    -0.232467449249E+04   -0.13839E-03   -0.21171E-03  4601   0.342E-02    0.698E-02
RMM:   4    -0.232467446321E+04    0.29277E-04   -0.24259E-04  3056   0.836E-03    0.383E-02
RMM:   5    -0.232467444994E+04    0.13276E-04   -0.53500E-05  2968   0.634E-03    0.297E-02
RMM:   6    -0.232467444357E+04    0.63666E-05   -0.33430E-05  2912   0.570E-03
  64 F= -.23456541E+04 E0= -.23456541E+04  d E =-.150724E-02  mag=     8.0000
       N       E                     dE             d eps       ncg     rms          rms(c)
DAV:   1    -0.232467406984E+04    0.38010E-03   -0.22389E-02  4784   0.147E-01    0.543E-02
RMM:   2    -0.232467435023E+04   -0.28039E-03   -0.28883E-03  5987   0.317E-02    0.427E-02
RMM:   3    -0.232467436322E+04   -0.12994E-04   -0.27859E-04  3039   0.119E-02    0.269E-02
RMM:   4    -0.232467435826E+04    0.49611E-05   -0.30840E-05  2933   0.375E-03
  65 F= -.23456542E+04 E0= -.23456542E+04  d E =-.158422E-02  mag=     8.0000
       N       E                     dE             d eps       ncg     rms          rms(c)
DAV:   1    -0.232467144616E+04    0.29171E-02   -0.33935E-01  4512   0.568E-01    0.202E-01
RMM:   2    -0.232467588169E+04   -0.44355E-02   -0.46028E-02  5789   0.113E-01    0.133E-01
RMM:   3    -0.232467619071E+04   -0.30902E-03   -0.44049E-03  5016   0.460E-02    0.913E-02
RMM:   4    -0.232467614907E+04    0.41645E-04   -0.48649E-04  3337   0.104E-02    0.512E-02
RMM:   5    -0.232467612352E+04    0.25540E-04   -0.83492E-05  3050   0.740E-03    0.392E-02
RMM:   6    -0.232467611264E+04    0.10884E-04   -0.59976E-05  2970   0.654E-03    0.285E-02
RMM:   7    -0.232467610644E+04    0.61994E-05   -0.16931E-05  2896   0.501E-03
  66 F= -.23456554E+04 E0= -.23456554E+04  d E =-.120966E-02  mag=     8.0000
       N       E                     dE             d eps       ncg     rms          rms(c)
DAV:   1    -0.232467506608E+04    0.10466E-02   -0.10481E-01  4512   0.316E-01    0.113E-01
RMM:   2    -0.232467644823E+04   -0.13821E-02   -0.14328E-02  5975   0.642E-02    0.794E-02
RMM:   3    -0.232467654339E+04   -0.95163E-04   -0.13921E-03  4010   0.266E-02    0.555E-02
RMM:   4    -0.232467652775E+04    0.15648E-04   -0.15641E-04  2969   0.664E-03    0.302E-02
RMM:   5    -0.232467652098E+04    0.67633E-05   -0.29308E-05  2913   0.450E-03
  67 F= -.23456555E+04 E0= -.23456555E+04  d E =-.132355E-02  mag=     8.0000
       N       E                     dE             d eps       ncg     rms          rms(c)
DAV:   1    -0.232467360742E+04    0.29203E-02   -0.33713E-01  4496   0.556E-01    0.190E-01
RMM:   2    -0.232467803915E+04   -0.44317E-02   -0.45533E-02  5976   0.112E-01    0.142E-01
RMM:   3    -0.232467833620E+04   -0.29705E-03   -0.44262E-03  4931   0.433E-02    0.928E-02
RMM:   4    -0.232467829168E+04    0.44520E-04   -0.47560E-04  3173   0.102E-02    0.520E-02
RMM:   5    -0.232467826479E+04    0.26894E-04   -0.94878E-05  3206   0.761E-03    0.347E-02
RMM:   6    -0.232467826185E+04    0.29416E-05   -0.59054E-05  2945   0.656E-03
  68 F= -.23456569E+04 E0= -.23456569E+04  d E =-.133795E-02  mag=     8.0000
       N       E                     dE             d eps       ncg     rms          rms(c)
DAV:   1    -0.232467235521E+04    0.59096E-02   -0.48780E-01  4496   0.670E-01    0.230E-01
RMM:   2    -0.232467876406E+04   -0.64088E-02   -0.66079E-02  5912   0.134E-01    0.161E-01
RMM:   3    -0.232467923864E+04   -0.47459E-03   -0.64238E-03  5182   0.497E-02    0.112E-01
RMM:   4    -0.232467918283E+04    0.55815E-04   -0.70572E-04  3420   0.118E-02    0.653E-02
RMM:   5    -0.232467914955E+04    0.33280E-04   -0.12290E-04  3216   0.791E-03    0.544E-02
RMM:   6    -0.232467912572E+04    0.23833E-04   -0.96362E-05  3081   0.753E-03    0.249E-02
RMM:   7    -0.232467912222E+04    0.34976E-05   -0.21644E-05  2955   0.547E-03
  69 F= -.23456572E+04 E0= -.23456572E+04  d E =-.171354E-02  mag=     8.0000
       N       E                     dE             d eps       ncg     rms          rms(c)
DAV:   1    -0.232467591175E+04    0.32140E-02   -0.37697E-01  4496   0.599E-01    0.206E-01
RMM:   2    -0.232468064907E+04   -0.47373E-02   -0.48786E-02  5902   0.119E-01    0.154E-01
RMM:   3    -0.232468096493E+04   -0.31586E-03   -0.46762E-03  5024   0.473E-02    0.108E-01
RMM:   4    -0.232468089698E+04    0.67950E-04   -0.51551E-04  3281   0.109E-02    0.518E-02
RMM:   5    -0.232468087618E+04    0.20800E-04   -0.92540E-05  3132   0.749E-03    0.440E-02
RMM:   6    -0.232468086320E+04    0.12982E-04   -0.64712E-05  2943   0.672E-03    0.251E-02
RMM:   7    -0.232468085944E+04    0.37520E-05   -0.16948E-05  2914   0.493E-03
  70 F= -.23456585E+04 E0= -.23456585E+04  d E =-.121673E-02  mag=     8.0000
       N       E                     dE             d eps       ncg     rms          rms(c)
DAV:   1    -0.232467731167E+04    0.35515E-02   -0.32937E-01  4496   0.560E-01    0.193E-01
RMM:   2    -0.232468145691E+04   -0.41452E-02   -0.42679E-02  5938   0.112E-01    0.142E-01
RMM:   3    -0.232468173692E+04   -0.28001E-03   -0.40863E-03  4912   0.448E-02    0.101E-01
RMM:   4    -0.232468167793E+04    0.58993E-04   -0.45138E-04  3168   0.103E-02    0.489E-02
RMM:   5    -0.232468165911E+04    0.18815E-04   -0.81482E-05  3091   0.704E-03    0.422E-02
RMM:   6    -0.232468164606E+04    0.13050E-04   -0.58117E-05  2929   0.645E-03    0.225E-02
RMM:   7    -0.232468164280E+04    0.32646E-05   -0.15455E-05  2912   0.471E-03
  71 F= -.23456588E+04 E0= -.23456588E+04  d E =-.151245E-02  mag=     8.0000
       N       E                     dE             d eps       ncg     rms          rms(c)
DAV:   1    -0.232467912400E+04    0.25221E-02   -0.36014E-01  4480   0.586E-01    0.200E-01
RMM:   2    -0.232468330559E+04   -0.41816E-02   -0.43228E-02  5953   0.116E-01    0.152E-01
RMM:   3    -0.232468357461E+04   -0.26902E-03   -0.42423E-03  4950   0.458E-02    0.107E-01
RMM:   4    -0.232468350634E+04    0.68269E-04   -0.47874E-04  3415   0.110E-02    0.498E-02
RMM:   5    -0.232468348827E+04    0.18065E-04   -0.87377E-05  3134   0.770E-03    0.416E-02
RMM:   6    -0.232468347799E+04    0.10280E-04   -0.57660E-05  2943   0.665E-03    0.250E-02
RMM:   7    -0.232468347441E+04    0.35878E-05   -0.14745E-05  2900   0.479E-03
  72 F= -.23456600E+04 E0= -.23456600E+04  d E =-.122990E-02  mag=     8.0000
       N       E                     dE             d eps       ncg     rms          rms(c)
DAV:   1    -0.232468198377E+04    0.14942E-02   -0.17607E-01  4512   0.409E-01    0.140E-01
RMM:   2    -0.232468403549E+04   -0.20517E-02   -0.21177E-02  5953   0.811E-02    0.108E-01
RMM:   3    -0.232468416555E+04   -0.13006E-03   -0.20833E-03  4290   0.327E-02    0.757E-02
RMM:   4    -0.232468413185E+04    0.33701E-04   -0.23551E-04  3032   0.823E-03    0.351E-02
RMM:   5    -0.232468412362E+04    0.82288E-05   -0.44379E-05  2937   0.562E-03
  73 F= -.23456602E+04 E0= -.23456602E+04  d E =-.145698E-02  mag=     8.0000
       N       E                     dE             d eps       ncg     rms          rms(c)
DAV:   1    -0.232468183468E+04    0.22972E-02   -0.39425E-01  4480   0.623E-01    0.204E-01
RMM:   2    -0.232468573195E+04   -0.38973E-02   -0.40452E-02  5936   0.119E-01    0.157E-01
RMM:   3    -0.232468594450E+04   -0.21255E-03   -0.39975E-03  5079   0.469E-02    0.110E-01
RMM:   4    -0.232468585851E+04    0.85995E-04   -0.44397E-04  3554   0.113E-02    0.503E-02
RMM:   5    -0.232468582831E+04    0.30199E-04   -0.94640E-05  3534   0.850E-03    0.214E-02
RMM:   6    -0.232468582867E+04   -0.36039E-06   -0.36626E-05  2999   0.659E-03
  74 F= -.23456614E+04 E0= -.23456614E+04  d E =-.122776E-02  mag=     8.0000
       N       E                     dE             d eps       ncg     rms          rms(c)
DAV:   1    -0.232468405991E+04    0.17684E-02   -0.22754E-01  4496   0.473E-01    0.156E-01
RMM:   2    -0.232468633002E+04   -0.22701E-02   -0.23524E-02  6024   0.900E-02    0.117E-01
RMM:   3    -0.232468645673E+04   -0.12670E-03   -0.22958E-03  4617   0.331E-02    0.869E-02
RMM:   4    -0.232468640217E+04    0.54555E-04   -0.26076E-04  3067   0.878E-03    0.387E-02
RMM:   5    -0.232468639038E+04    0.11796E-04   -0.56865E-05  3003   0.617E-03    0.322E-02
RMM:   6    -0.232468638446E+04    0.59189E-05   -0.37235E-05  2911   0.574E-03
  75 F= -.23456616E+04 E0= -.23456616E+04  d E =-.141974E-02  mag=     8.0000
       N       E                     dE             d eps       ncg     rms          rms(c)
DAV:   1    -0.232468438918E+04    0.20012E-02   -0.32124E-01  4480   0.555E-01    0.175E-01
RMM:   2    -0.232468760105E+04   -0.32119E-02   -0.33120E-02  5843   0.104E-01    0.138E-01
RMM:   3    -0.232468776887E+04   -0.16782E-03   -0.31863E-03  4744   0.429E-02    0.949E-02
RMM:   4    -0.232468770908E+04    0.59792E-04   -0.36205E-04  3280   0.991E-03    0.449E-02
RMM:   5    -0.232468769037E+04    0.18708E-04   -0.70475E-05  3098   0.717E-03    0.343E-02
RMM:   6    -0.232468768568E+04    0.46956E-05   -0.49042E-05  2924   0.634E-03
  76 F= -.23456626E+04 E0= -.23456626E+04  d E =-.952199E-03  mag=     8.0000
       N       E                     dE             d eps       ncg     rms          rms(c)
DAV:   1    -0.232468412479E+04    0.35656E-02   -0.41113E-01  4480   0.627E-01    0.198E-01
RMM:   2    -0.232468824615E+04   -0.41214E-02   -0.42547E-02  5851   0.117E-01    0.155E-01
RMM:   3    -0.232468845548E+04   -0.20933E-03   -0.40458E-03  5021   0.440E-02    0.108E-01
RMM:   4    -0.232468837834E+04    0.77136E-04   -0.46091E-04  3456   0.107E-02    0.514E-02
RMM:   5    -0.232468835396E+04    0.24379E-04   -0.91676E-05  3249   0.775E-03    0.401E-02
RMM:   6    -0.232468834594E+04    0.80279E-05   -0.62808E-05  2956   0.681E-03
  77 F= -.23456628E+04 E0= -.23456628E+04  d E =-.121463E-02  mag=     8.0000
       N       E                     dE             d eps       ncg     rms          rms(c)
DAV:   1    -0.232468587530E+04    0.24787E-02   -0.40298E-01  4480   0.624E-01    0.196E-01
RMM:   2    -0.232468983742E+04   -0.39621E-02   -0.40821E-02  5932   0.116E-01    0.152E-01
RMM:   3    -0.232469003439E+04   -0.19698E-03   -0.38844E-03  5027   0.456E-02    0.107E-01
RMM:   4    -0.232468995442E+04    0.79975E-04   -0.44192E-04  3439   0.106E-02    0.501E-02
RMM:   5    -0.232468992879E+04    0.25626E-04   -0.84203E-05  3233   0.769E-03    0.358E-02
RMM:   6    -0.232468992533E+04    0.34561E-05   -0.59795E-05  2943   0.678E-03
  78 F= -.23456641E+04 E0= -.23456641E+04  d E =-.125257E-02  mag=     8.0000
       N       E                     dE             d eps       ncg     rms          rms(c)
DAV:   1    -0.232468466741E+04    0.52614E-02   -0.61006E-01  4480   0.767E-01    0.241E-01
RMM:   2    -0.232469068456E+04   -0.60172E-02   -0.61906E-02  5866   0.143E-01    0.191E-01
RMM:   3    -0.232469096608E+04   -0.28152E-03   -0.58426E-03  5208   0.538E-02    0.132E-01
RMM:   4    -0.232469084452E+04    0.12156E-03   -0.66975E-04  4066   0.127E-02    0.612E-02
RMM:   5    -0.232469080410E+04    0.40419E-04   -0.12752E-04  3651   0.910E-03    0.429E-02
RMM:   6    -0.232469079952E+04    0.45817E-05   -0.88140E-05  3024   0.750E-03
  79 F= -.23456646E+04 E0= -.23456646E+04  d E =-.172015E-02  mag=     8.0000
       N       E                     dE             d eps       ncg     rms          rms(c)
DAV:   1    -0.232468875220E+04    0.20519E-02   -0.35258E-01  4512   0.580E-01    0.180E-01
RMM:   2    -0.232469224497E+04   -0.34928E-02   -0.35832E-02  6045   0.109E-01    0.146E-01
RMM:   3    -0.232469241017E+04   -0.16520E-03   -0.34214E-03  4937   0.407E-02    0.977E-02
RMM:   4    -0.232469234493E+04    0.65235E-04   -0.38182E-04  3226   0.986E-03    0.471E-02
RMM:   5    -0.232469232403E+04    0.20904E-04   -0.78258E-05  3165   0.715E-03    0.353E-02
RMM:   6    -0.232469232040E+04    0.36251E-05   -0.53070E-05  2928   0.642E-03
  80 F= -.23456658E+04 E0= -.23456658E+04  d E =-.126698E-02  mag=     8.0000
       N       E                     dE             d eps       ncg     rms          rms(c)
DAV:   1    -0.232468206823E+04    0.10256E-01   -0.11366E+00  4480   0.104E+00    0.323E-01
RMM:   2    -0.232469339071E+04   -0.11322E-01   -0.11547E-01  5808   0.193E-01    0.278E-01
RMM:   3    -0.232469380127E+04   -0.41056E-03   -0.10883E-02  5305   0.729E-02    0.174E-01
RMM:   4    -0.232469358820E+04    0.21307E-03   -0.12216E-03  4719   0.167E-02    0.815E-02
RMM:   5    -0.232469350284E+04    0.85354E-04   -0.24885E-04  4273   0.123E-02    0.433E-02
RMM:   6    -0.232469350816E+04   -0.53215E-05   -0.13586E-04  3482   0.892E-03    0.472E-02
RMM:   7    -0.232469349139E+04    0.16770E-04   -0.32309E-05  2915   0.596E-03    0.115E-02
RMM:   8    -0.232469349096E+04    0.43376E-06   -0.76134E-06  2885   0.281E-03
  81 F= -.23456665E+04 E0= -.23456665E+04  d E =-.197610E-02  mag=     8.0000
       N       E                     dE             d eps       ncg     rms          rms(c)
DAV:   1    -0.232468924367E+04    0.42477E-02   -0.56483E-01  4480   0.729E-01    0.237E-01
RMM:   2    -0.232469504377E+04   -0.58001E-02   -0.59129E-02  5807   0.137E-01    0.207E-01
RMM:   3    -0.232469522950E+04   -0.18573E-03   -0.56065E-03  5102   0.517E-02    0.126E-01
RMM:   4    -0.232469511190E+04    0.11760E-03   -0.62658E-04  4044   0.121E-02    0.574E-02
RMM:   5    -0.232469506791E+04    0.43985E-04   -0.12344E-04  3637   0.919E-03    0.248E-02
RMM:   6    -0.232469506623E+04    0.16846E-05   -0.49992E-05  3134   0.686E-03
  82 F= -.23456678E+04 E0= -.23456678E+04  d E =-.130101E-02  mag=     8.0000
       N       E                     dE             d eps       ncg     rms          rms(c)
DAV:   1    -0.232468831932E+04    0.67486E-02   -0.71147E-01  4480   0.819E-01    0.268E-01
RMM:   2    -0.232469568425E+04   -0.73649E-02   -0.74956E-02  5918   0.156E-01    0.237E-01
RMM:   3    -0.232469589138E+04   -0.20713E-03   -0.71097E-03  5372   0.561E-02    0.142E-01
RMM:   4    -0.232469574324E+04    0.14814E-03   -0.79571E-04  4245   0.134E-02    0.646E-02
RMM:   5    -0.232469569042E+04    0.52824E-04   -0.15301E-04  3899   0.985E-03    0.295E-02
RMM:   6    -0.232469568954E+04    0.87824E-06   -0.63765E-05  3176   0.747E-03
  83 F= -.23456681E+04 E0= -.23456681E+04  d E =-.161088E-02  mag=     8.0000
       N       E                     dE             d eps       ncg     rms          rms(c)
DAV:   1    -0.232469113460E+04    0.45558E-02   -0.57505E-01  4480   0.722E-01    0.232E-01
RMM:   2    -0.232469729499E+04   -0.61604E-02   -0.62738E-02  6040   0.139E-01    0.211E-01
RMM:   3    -0.232469749414E+04   -0.19915E-03   -0.59705E-03  5267   0.509E-02    0.121E-01
RMM:   4    -0.232469740189E+04    0.92244E-04   -0.66240E-04  3658   0.120E-02    0.598E-02
RMM:   5    -0.232469736691E+04    0.34986E-04   -0.11395E-04  3434   0.850E-03    0.367E-02
RMM:   6    -0.232469736863E+04   -0.17252E-05   -0.72405E-05  2995   0.734E-03
  84 F= -.23456695E+04 E0= -.23456695E+04  d E =-.134639E-02  mag=     8.0000
       N       E                     dE             d eps       ncg     rms          rms(c)
DAV:   1    -0.232468321845E+04    0.14148E-01   -0.14065E+00  4480   0.113E+00    0.362E-01
RMM:   2    -0.232469830421E+04   -0.15086E-01   -0.15339E-01  5885   0.216E-01    0.336E-01
RMM:   3    -0.232469874590E+04   -0.44169E-03   -0.14677E-02  5434   0.791E-02    0.188E-01
RMM:   4    -0.232469852823E+04    0.21767E-03   -0.16590E-03  4782   0.181E-02    0.934E-02
RMM:   5    -0.232469843982E+04    0.88409E-04   -0.28273E-04  4123   0.125E-02    0.613E-02
RMM:   6    -0.232469843661E+04    0.32158E-05   -0.17666E-04  3663   0.979E-03    0.560E-02
RMM:   7    -0.232469841309E+04    0.23512E-04   -0.48367E-05  2943   0.653E-03    0.123E-02
RMM:   8    -0.232469841203E+04    0.10612E-05   -0.94148E-06  2888   0.324E-03
  85 F= -.23456700E+04 E0= -.23456700E+04  d E =-.186028E-02  mag=     8.0000
       N       E                     dE             d eps       ncg     rms          rms(c)
DAV:   1    -0.232469092220E+04    0.74909E-02   -0.89992E-01  4480   0.904E-01    0.292E-01
RMM:   2    -0.232470034184E+04   -0.94196E-02   -0.95495E-02  5848   0.171E-01    0.272E-01
RMM:   3    -0.232470055804E+04   -0.21620E-03   -0.88934E-03  5290   0.630E-02    0.153E-01
RMM:   4    -0.232470039053E+04    0.16751E-03   -0.10256E-03  4479   0.146E-02    0.710E-02
RMM:   5    -0.232470032123E+04    0.69292E-04   -0.17840E-04  4020   0.108E-02    0.330E-02
[...]
DAV:   1    -0.232474026690E+04   -0.27071E-04   -0.11213E-03  4320   0.316E-02    0.153E-02
RMM:   2    -0.232474028430E+04   -0.17406E-04   -0.17096E-04  3223   0.824E-03    0.182E-02
RMM:   3    -0.232474028349E+04    0.81191E-06   -0.19368E-05  2497   0.463E-03
 255 F= -.23456922E+04 E0= -.23456922E+04  d E =-.185738E-04  mag=     8.0000
       N       E                     dE             d eps       ncg     rms          rms(c)
DAV:   1    -0.232474029339E+04   -0.90825E-05   -0.31269E-04  4560   0.167E-02    0.888E-03
RMM:   2    -0.232474029769E+04   -0.43050E-05   -0.46976E-05  2790   0.447E-03
 256 F= -.23456922E+04 E0= -.23456922E+04  d E =-.214476E-04  mag=     8.0000
       N       E                     dE             d eps       ncg     rms          rms(c)
DAV:   1    -0.232474033450E+04   -0.41118E-04   -0.10534E-03  4352   0.303E-02    0.146E-02
RMM:   2    -0.232474035065E+04   -0.16148E-04   -0.16394E-04  3137   0.789E-03    0.154E-02
RMM:   3    -0.232474035066E+04   -0.63737E-08   -0.18602E-05  2525   0.458E-03
 257 F= -.23456922E+04 E0= -.23456922E+04  d E =-.189120E-04  mag=     8.0000
       N       E                     dE             d eps       ncg     rms          rms(c)
DAV:   1    -0.232474036637E+04   -0.15715E-04   -0.27536E-04  4816   0.155E-02    0.804E-03
RMM:   2    -0.232474037025E+04   -0.38829E-05   -0.42630E-05  2692   0.412E-03
 258 F= -.23456922E+04 E0= -.23456922E+04  d E =-.209035E-04  mag=     8.0000
       N       E                     dE             d eps       ncg     rms          rms(c)
DAV:   1    -0.232474039944E+04   -0.33072E-04   -0.90147E-04  4248   0.263E-02    0.134E-02
RMM:   2    -0.232474041533E+04   -0.15895E-04   -0.15692E-04  3074   0.715E-03    0.158E-02
RMM:   3    -0.232474041504E+04    0.29377E-06   -0.17455E-05  2418   0.422E-03
 259 F= -.23456922E+04 E0= -.23456922E+04  d E =-.161972E-04  mag=     8.0000
       N       E                     dE             d eps       ncg     rms          rms(c)
DAV:   1    -0.232474043280E+04   -0.17466E-04   -0.49817E-04  4248   0.195E-02    0.997E-03
RMM:   2    -0.232474044076E+04   -0.79599E-05   -0.82932E-05  2970   0.517E-03
 260 F= -.23456922E+04 E0= -.23456922E+04  d E =-.205734E-04  mag=     8.0000
       N       E                     dE             d eps       ncg     rms          rms(c)
DAV:   1    -0.232474046567E+04   -0.32868E-04   -0.11223E-03  4336   0.304E-02    0.147E-02
RMM:   2    -0.232474048457E+04   -0.18903E-04   -0.18749E-04  3179   0.799E-03    0.168E-02
RMM:   3    -0.232474048445E+04    0.12341E-06   -0.20760E-05  2517   0.463E-03
 261 F= -.23456923E+04 E0= -.23456923E+04  d E =-.186161E-04  mag=     8.0000
       N       E                     dE             d eps       ncg     rms          rms(c)
DAV:   1    -0.232474049873E+04   -0.14163E-04   -0.64997E-04  4280   0.230E-02    0.113E-02
RMM:   2    -0.232474050835E+04   -0.96181E-05   -0.10125E-04  2989   0.585E-03    0.908E-03
RMM:   3    -0.232474050890E+04   -0.55195E-06   -0.11527E-05  2501   0.360E-03
 262 F= -.23456923E+04 E0= -.23456923E+04  d E =-.238285E-04  mag=     8.0000
       N       E                     dE             d eps       ncg     rms          rms(c)
DAV:   1    -0.232474053113E+04   -0.22779E-04   -0.89705E-04  4232   0.261E-02    0.121E-02
RMM:   2    -0.232474054542E+04   -0.14294E-04   -0.14895E-04  3081   0.644E-03    0.805E-03
RMM:   3    -0.232474054652E+04   -0.10944E-05   -0.15854E-05  2466   0.391E-03
 263 F= -.23456923E+04 E0= -.23456923E+04  d E =-.155797E-04  mag=     8.0000
       N       E                     dE             d eps       ncg     rms          rms(c)
DAV:   1    -0.232474055936E+04   -0.13939E-04   -0.12454E-03  4320   0.308E-02    0.144E-02
RMM:   2    -0.232474057913E+04   -0.19769E-04   -0.20661E-04  3179   0.744E-03    0.953E-03
RMM:   3    -0.232474058061E+04   -0.14778E-05   -0.21959E-05  2695   0.445E-03
 264 F= -.23456923E+04 E0= -.23456923E+04  d E =-.237396E-04  mag=     8.0000
       N       E                     dE             d eps       ncg     rms          rms(c)
DAV:   1    -0.232474061532E+04   -0.36191E-04   -0.94590E-04  4240   0.266E-02    0.123E-02
RMM:   2    -0.232474063150E+04   -0.16177E-04   -0.16620E-04  3111   0.665E-03    0.927E-03
RMM:   3    -0.232474063276E+04   -0.12642E-05   -0.18119E-05  2449   0.408E-03
 265 F= -.23456923E+04 E0= -.23456923E+04  d E =-.230222E-04  mag=     8.0000
       N       E                     dE             d eps       ncg     rms          rms(c)
DAV:   1    -0.232474065180E+04   -0.20303E-04   -0.20702E-03  4432   0.392E-02    0.190E-02
RMM:   2    -0.232474068661E+04   -0.34812E-04   -0.35972E-04  3410   0.953E-03    0.150E-02
RMM:   3    -0.232474068871E+04   -0.21001E-05   -0.36884E-05  2820   0.546E-03
 266 F= -.23456923E+04 E0= -.23456923E+04  d E =-.358626E-04  mag=     8.0000
       N       E                     dE             d eps       ncg     rms          rms(c)
DAV:   1    -0.232474071202E+04   -0.25410E-04   -0.14452E-03  4272   0.328E-02    0.155E-02
RMM:   2    -0.232474073659E+04   -0.24561E-04   -0.25427E-04  3223   0.800E-03    0.111E-02
RMM:   3    -0.232474073854E+04   -0.19550E-05   -0.27578E-05  2641   0.476E-03
 267 F= -.23456923E+04 E0= -.23456923E+04  d E =-.175438E-04  mag=     8.0000
       N       E                     dE             d eps       ncg     rms          rms(c)
DAV:   1    -0.232474075252E+04   -0.15929E-04   -0.10658E-03  4248   0.282E-02    0.140E-02
RMM:   2    -0.232474077095E+04   -0.18437E-04   -0.19033E-04  3151   0.706E-03    0.116E-02
RMM:   3    -0.232474077213E+04   -0.11785E-05   -0.21378E-05  2653   0.427E-03
 268 F= -.23456923E+04 E0= -.23456923E+04  d E =-.233106E-04  mag=     8.0000
       N       E                     dE             d eps       ncg     rms          rms(c)
DAV:   1    -0.232474080650E+04   -0.35544E-04   -0.13393E-03  4232   0.306E-02    0.148E-02
RMM:   2    -0.232474083064E+04   -0.24140E-04   -0.24346E-04  3188   0.753E-03    0.137E-02
RMM:   3    -0.232474083193E+04   -0.12900E-05   -0.25994E-05  2573   0.451E-03
 269 F= -.23456924E+04 E0= -.23456924E+04  d E =-.224309E-04  mag=     8.0000
       N       E                     dE             d eps       ncg     rms          rms(c)
DAV:   1    -0.232474084927E+04   -0.18632E-04   -0.29315E-03  4432   0.451E-02    0.220E-02
RMM:   2    -0.232474090100E+04   -0.51732E-04   -0.52810E-04  3534   0.109E-02    0.181E-02
RMM:   3    -0.232474090407E+04   -0.30748E-05   -0.53795E-05  2872   0.606E-03
 270 F= -.23456924E+04 E0= -.23456924E+04  d E =-.393759E-04  mag=     8.0000
       N       E                     dE             d eps       ncg     rms          rms(c)
DAV:   1    -0.232474092015E+04   -0.19152E-04   -0.64935E-04  4664   0.213E-02    0.116E-02
RMM:   2    -0.232474093201E+04   -0.11858E-04   -0.12422E-04  3037   0.551E-03    0.866E-03
RMM:   3    -0.232474093292E+04   -0.91500E-06   -0.14147E-05  2507   0.344E-03
 271 F= -.23456924E+04 E0= -.23456924E+04  d E =-.421083E-04  mag=     8.0000
       N       E                     dE             d eps       ncg     rms          rms(c)
DAV:   1    -0.232474096395E+04   -0.31939E-04   -0.19432E-03  4240   0.349E-02    0.172E-02
RMM:   2    -0.232474100004E+04   -0.36094E-04   -0.36581E-04  3296   0.863E-03    0.144E-02
RMM:   3    -0.232474100234E+04   -0.23027E-05   -0.36857E-05  2593   0.489E-03
 272 F= -.23456924E+04 E0= -.23456924E+04  d E =-.232088E-04  mag=     8.0000
       N       E                     dE             d eps       ncg     rms          rms(c)
DAV:   1    -0.232474102056E+04   -0.20519E-04   -0.26207E-03  4320   0.404E-02    0.200E-02
RMM:   2    -0.232474106894E+04   -0.48382E-04   -0.49219E-04  3390   0.993E-03    0.168E-02
RMM:   3    -0.232474107215E+04   -0.32078E-05   -0.51075E-05  2804   0.579E-03
 273 F= -.23456924E+04 E0= -.23456924E+04  d E =-.394694E-04  mag=     8.0000
       N       E                     dE             d eps       ncg     rms          rms(c)
DAV:   1    -0.232474110553E+04   -0.36589E-04   -0.23862E-03  4432   0.435E-02    0.206E-02
RMM:   2    -0.232474114499E+04   -0.39455E-04   -0.40554E-04  3536   0.104E-02    0.162E-02
RMM:   3    -0.232474114761E+04   -0.26199E-05   -0.44111E-05  2841   0.596E-03
 274 F= -.23456925E+04 E0= -.23456925E+04  d E =-.336822E-04  mag=     8.0000
       N       E                     dE             d eps       ncg     rms          rms(c)
DAV:   1    -0.232474116164E+04   -0.16655E-04   -0.18700E-03  4448   0.384E-02    0.192E-02
RMM:   2    -0.232474119247E+04   -0.30826E-04   -0.31916E-04  3396   0.926E-03    0.156E-02
RMM:   3    -0.232474119440E+04   -0.19323E-05   -0.34645E-05  2862   0.536E-03
 275 F= -.23456925E+04 E0= -.23456925E+04  d E =-.433600E-04  mag=     8.0000
       N       E                     dE             d eps       ncg     rms          rms(c)
DAV:   1    -0.232474120535E+04   -0.12885E-04   -0.27456E-03  4448   0.437E-02    0.216E-02
RMM:   2    -0.232474125457E+04   -0.49214E-04   -0.50133E-04  3528   0.108E-02    0.180E-02
RMM:   3    -0.232474125765E+04   -0.30883E-05   -0.52095E-05  2874   0.598E-03
 276 F= -.23456925E+04 E0= -.23456925E+04  d E =-.253104E-04  mag=     8.0000
       N       E                     dE             d eps       ncg     rms          rms(c)
DAV:   1    -0.232474126622E+04   -0.11652E-04   -0.91427E-04  4520   0.252E-02    0.135E-02
RMM:   2    -0.232474128291E+04   -0.16690E-04   -0.17218E-04  3137   0.648E-03    0.114E-02
RMM:   3    -0.232474128401E+04   -0.11014E-05   -0.19522E-05  2662   0.399E-03
 277 F= -.23456925E+04 E0= -.23456925E+04  d E =-.297353E-04  mag=     8.0000
       N       E                     dE             d eps       ncg     rms          rms(c)
DAV:   1    -0.232474130775E+04   -0.24846E-04   -0.29628E-03  4400   0.477E-02    0.219E-02
RMM:   2    -0.232474135699E+04   -0.49234E-04   -0.50185E-04  3699   0.112E-02    0.177E-02
RMM:   3    -0.232474135996E+04   -0.29691E-05   -0.50325E-05  2758   0.617E-03
 278 F= -.23456925E+04 E0= -.23456925E+04  d E =-.298960E-04  mag=     8.0000
       N       E                     dE             d eps       ncg     rms          rms(c)
DAV:   1    -0.232474137343E+04   -0.16447E-04   -0.14813E-03  4336   0.336E-02    0.165E-02
RMM:   2    -0.232474139812E+04   -0.24684E-04   -0.25787E-04  3237   0.824E-03    0.121E-02
RMM:   3    -0.232474139998E+04   -0.18581E-05   -0.28642E-05  2766   0.477E-03
 279 F= -.23456925E+04 E0= -.23456925E+04  d E =-.372269E-04  mag=     8.0000
       N       E                     dE             d eps       ncg     rms          rms(c)
DAV:   1    -0.232474142849E+04   -0.30373E-04   -0.32789E-03  4464   0.500E-02    0.236E-02
RMM:   2    -0.232474148252E+04   -0.54025E-04   -0.55623E-04  3795   0.120E-02    0.177E-02
RMM:   3    -0.232474148617E+04   -0.36533E-05   -0.56549E-05  2878   0.657E-03
 280 F= -.23456926E+04 E0= -.23456926E+04  d E =-.282820E-04  mag=     8.0000
       N       E                     dE             d eps       ncg     rms          rms(c)
DAV:   1    -0.232474150024E+04   -0.17728E-04   -0.31445E-04  5032   0.155E-02    0.978E-03
RMM:   2    -0.232474150584E+04   -0.55988E-05   -0.60717E-05  2752   0.410E-03
 281 F= -.23456926E+04 E0= -.23456926E+04  d E =-.299240E-04  mag=     8.0000
       N       E                     dE             d eps       ncg     rms          rms(c)
DAV:   1    -0.232474154169E+04   -0.41444E-04   -0.27576E-03  4384   0.452E-02    0.213E-02
RMM:   2    -0.232474158945E+04   -0.47767E-04   -0.47836E-04  3634   0.113E-02    0.210E-02
RMM:   3    -0.232474159134E+04   -0.18860E-05   -0.52583E-05  2781   0.640E-03
 282 F= -.23456926E+04 E0= -.23456926E+04  d E =-.301003E-04  mag=     8.0000
       N       E                     dE             d eps       ncg     rms          rms(c)
DAV:   1    -0.232474160690E+04   -0.17446E-04   -0.34641E-04  4768   0.161E-02    0.101E-02
RMM:   2    -0.232474161310E+04   -0.62037E-05   -0.65309E-05  2820   0.433E-03
 283 F= -.23456926E+04 E0= -.23456926E+04  d E =-.321471E-04  mag=     8.0000
       N       E                     dE             d eps       ncg     rms          rms(c)
DAV:   1    -0.232474162671E+04   -0.19808E-04   -0.30632E-03  4432   0.492E-02    0.232E-02
RMM:   2    -0.232474167604E+04   -0.49336E-04   -0.50033E-04  3770   0.124E-02    0.228E-02
RMM:   3    -0.232474167760E+04   -0.15520E-05   -0.53840E-05  2863   0.675E-03
 284 F= -.23456926E+04 E0= -.23456926E+04  d E =-.274513E-04  mag=     8.0000
       N       E                     dE             d eps       ncg     rms          rms(c)
DAV:   1    -0.232474168575E+04   -0.97024E-05   -0.41711E-04  4816   0.181E-02    0.105E-02
RMM:   2    -0.232474169234E+04   -0.65892E-05   -0.72975E-05  2891   0.481E-03
 285 F= -.23456926E+04 E0= -.23456926E+04  d E =-.283744E-04  mag=     8.0000
       N       E                     dE             d eps       ncg     rms          rms(c)
DAV:   1    -0.232474170327E+04   -0.17520E-04   -0.32589E-03  4440   0.482E-02    0.239E-02
RMM:   2    -0.232474176034E+04   -0.57071E-04   -0.56561E-04  3694   0.122E-02    0.264E-02
RMM:   3    -0.232474176094E+04   -0.59941E-06   -0.61407E-05  2835   0.660E-03
 286 F= -.23456927E+04 E0= -.23456927E+04  d E =-.288029E-04  mag=     8.0000
       N       E                     dE             d eps       ncg     rms          rms(c)
DAV:   1    -0.232474176912E+04   -0.87774E-05   -0.12852E-03  4232   0.301E-02    0.156E-02
RMM:   2    -0.232474179075E+04   -0.21633E-04   -0.22287E-04  3201   0.763E-03    0.145E-02
RMM:   3    -0.232474179171E+04   -0.96038E-06   -0.24642E-05  2757   0.440E-03
 287 F= -.23456927E+04 E0= -.23456927E+04  d E =-.344901E-04  mag=     8.0000
       N       E                     dE             d eps       ncg     rms          rms(c)
DAV:   1    -0.232474182241E+04   -0.31664E-04   -0.40303E-03  4448   0.558E-02    0.253E-02
RMM:   2    -0.232474188492E+04   -0.62504E-04   -0.64254E-04  4113   0.126E-02    0.195E-02
RMM:   3    -0.232474188864E+04   -0.37247E-05   -0.61898E-05  2865   0.684E-03
 288 F= -.23456927E+04 E0= -.23456927E+04  d E =-.360726E-04  mag=     8.0000
       N       E                     dE             d eps       ncg     rms          rms(c)
DAV:   1    -0.232474190706E+04   -0.22138E-04   -0.10873E-03  4400   0.290E-02    0.152E-02
RMM:   2    -0.232474192451E+04   -0.17457E-04   -0.18623E-04  3160   0.716E-03    0.114E-02
RMM:   3    -0.232474192567E+04   -0.11609E-05   -0.20745E-05  2756   0.405E-03
 289 F= -.23456927E+04 E0= -.23456927E+04  d E =-.412361E-04  mag=     8.0000
       N       E                     dE             d eps       ncg     rms          rms(c)
DAV:   1    -0.232474195731E+04   -0.32800E-04   -0.41705E-03  4464   0.553E-02    0.262E-02
RMM:   2    -0.232474202608E+04   -0.68765E-04   -0.69833E-04  3977   0.127E-02    0.229E-02
RMM:   3    -0.232474202947E+04   -0.33978E-05   -0.69724E-05  2887   0.704E-03
 290 F= -.23456927E+04 E0= -.23456927E+04  d E =-.337748E-04  mag=     8.0000
       N       E                     dE             d eps       ncg     rms          rms(c)
DAV:   1    -0.232474204502E+04   -0.18945E-04   -0.44571E-04  4896   0.182E-02    0.113E-02
RMM:   2    -0.232474205305E+04   -0.80239E-05   -0.85034E-05  2896   0.474E-03
 291 F= -.23456927E+04 E0= -.23456927E+04  d E =-.343150E-04  mag=     8.0000
       N       E                     dE             d eps       ncg     rms          rms(c)
DAV:   1    -0.232474207138E+04   -0.26354E-04   -0.40407E-03  4448   0.547E-02    0.257E-02
RMM:   2    -0.232474214070E+04   -0.69325E-04   -0.70186E-04  3941   0.134E-02    0.242E-02
RMM:   3    -0.232474214397E+04   -0.32712E-05   -0.76503E-05  2860   0.737E-03
 292 F= -.23456928E+04 E0= -.23456928E+04  d E =-.392158E-04  mag=     8.0000
       N       E                     dE             d eps       ncg     rms          rms(c)
DAV:   1    -0.232474214057E+04    0.13039E-06   -0.36331E-03  4448   0.516E-02    0.248E-02
RMM:   2    -0.232474220034E+04   -0.59768E-04   -0.61642E-04  3827   0.121E-02    0.200E-02
RMM:   3    -0.232474220407E+04   -0.37282E-05   -0.64342E-05  2879   0.647E-03
 293 F= -.23456928E+04 E0= -.23456928E+04  d E =-.501200E-04  mag=     8.0000
       N       E                     dE             d eps       ncg     rms          rms(c)
DAV:   1    -0.232474220520E+04   -0.48629E-05   -0.44128E-03  4424   0.542E-02    0.259E-02
RMM:   2    -0.232474228212E+04   -0.76920E-04   -0.78617E-04  3887   0.131E-02    0.198E-02
RMM:   3    -0.232474228766E+04   -0.55406E-05   -0.80687E-05  2880   0.681E-03
 294 F= -.23456928E+04 E0= -.23456928E+04  d E =-.350203E-04  mag=     8.0000
       N       E                     dE             d eps       ncg     rms          rms(c)
DAV:   1    -0.232474228520E+04   -0.30769E-05   -0.30719E-03  4424   0.451E-02    0.222E-02
RMM:   2    -0.232474233883E+04   -0.53627E-04   -0.55157E-04  3562   0.109E-02    0.171E-02
RMM:   3    -0.232474234270E+04   -0.38719E-05   -0.58080E-05  2869   0.600E-03
 295 F= -.23456928E+04 E0= -.23456928E+04  d E =-.494776E-04  mag=     8.0000
       N       E                     dE             d eps       ncg     rms          rms(c)
DAV:   1    -0.232474235980E+04   -0.20973E-04   -0.53860E-03  4464   0.631E-02    0.294E-02
RMM:   2    -0.232474244928E+04   -0.89482E-04   -0.91787E-04  4431   0.150E-02    0.225E-02
RMM:   3    -0.232474245518E+04   -0.59041E-05   -0.92511E-05  2884   0.771E-03
 296 F= -.23456929E+04 E0= -.23456929E+04  d E =-.483295E-04  mag=     8.0000
       N       E                     dE             d eps       ncg     rms          rms(c)
DAV:   1    -0.232474246143E+04   -0.12154E-04   -0.27639E-03  4448   0.451E-02    0.227E-02
RMM:   2    -0.232474250753E+04   -0.46100E-04   -0.48146E-04  3583   0.108E-02    0.169E-02
RMM:   3    -0.232474251092E+04   -0.33856E-05   -0.52493E-05  2878   0.576E-03
 297 F= -.23456929E+04 E0= -.23456929E+04  d E =-.579465E-04  mag=     8.0000
       N       E                     dE             d eps       ncg     rms          rms(c)
DAV:   1    -0.232474250994E+04   -0.24044E-05   -0.66651E-03  4464   0.668E-02    0.325E-02
RMM:   2    -0.232474262812E+04   -0.11818E-03   -0.12006E-03  4403   0.160E-02    0.266E-02
RMM:   3    -0.232474263554E+04   -0.74282E-05   -0.11998E-04  2890   0.793E-03    0.160E-02
RMM:   4    -0.232474263436E+04    0.11880E-05   -0.15576E-05  2869   0.225E-03
 298 F= -.23456929E+04 E0= -.23456929E+04  d E =-.374166E-04  mag=     8.0000
       N       E                     dE             d eps       ncg     rms          rms(c)
DAV:   1    -0.232474264114E+04   -0.55949E-05   -0.37783E-03  4416   0.502E-02    0.236E-02
RMM:   2    -0.232474270539E+04   -0.64251E-04   -0.66296E-04  3734   0.116E-02    0.179E-02
RMM:   3    -0.232474270977E+04   -0.43767E-05   -0.65461E-05  2886   0.628E-03
 299 F= -.23456929E+04 E0= -.23456929E+04  d E =-.476802E-04  mag=     8.0000
       N       E                     dE             d eps       ncg     rms          rms(c)
DAV:   1    -0.232474272328E+04   -0.17887E-04   -0.50349E-03  4432   0.577E-02    0.276E-02
RMM:   2    -0.232474281360E+04   -0.90319E-04   -0.92068E-04  4005   0.135E-02    0.216E-02
RMM:   3    -0.232474282011E+04   -0.65150E-05   -0.94856E-05  2877   0.726E-03
 300 F= -.23456930E+04 E0= -.23456930E+04  d E =-.469726E-04  mag=     8.0000
       N       E                     dE             d eps       ncg     rms          rms(c)
DAV:   1    -0.232474267856E+04    0.13504E-03   -0.15245E-02  4480   0.100E-01    0.488E-02
RMM:   2    -0.232474295078E+04   -0.27222E-03   -0.27749E-03  5543   0.234E-02    0.403E-02
RMM:   3    -0.232474296669E+04   -0.15916E-04   -0.27075E-04  2917   0.104E-02    0.238E-02
RMM:   4    -0.232474296370E+04    0.29905E-05   -0.34263E-05  2951   0.288E-03
 301 F= -.23456930E+04 E0= -.23456930E+04  d E =-.802046E-04  mag=     8.0000
