       N       E                     dE             d eps       ncg     rms          rms(c)
DAV:   1     0.123796964446E+05    0.12380E+05   -0.82849E+05  4560   0.140E+03
DAV:   2    -0.120870122329E+04   -0.13588E+05   -0.13044E+05  5320   0.321E+02
DAV:   3    -0.249021571996E+04   -0.12815E+04   -0.12712E+04  5480   0.104E+02
DAV:   4    -0.252028698230E+04   -0.30071E+02   -0.29925E+02  5840   0.208E+01
DAV:   5    -0.252115858897E+04   -0.87161E+00   -0.87001E+00  5720   0.285E+00    0.170E+02
RMM:   6    -0.147675826414E+04    0.10444E+04   -0.19014E+03  4496   0.377E+01    0.733E+01
RMM:   7    -0.165961345981E+04   -0.18286E+03   -0.27838E+02  5094   0.138E+01    0.572E+01
RMM:   8    -0.169243514570E+04   -0.32822E+02   -0.82723E+01  5270   0.768E+00    0.424E+01
RMM:   9    -0.178451773984E+04   -0.92083E+02   -0.61354E+01  4943   0.765E+00    0.329E+01
RMM:  10    -0.191455348929E+04   -0.13004E+03   -0.57403E+01  5053   0.708E+00    0.195E+01
RMM:  11    -0.203465778560E+04   -0.12010E+03   -0.52974E+01  4865   0.582E+00    0.161E+01
RMM:  12    -0.212641892350E+04   -0.91761E+02   -0.45611E+01  4692   0.514E+00    0.117E+01
RMM:  13    -0.226236074849E+04   -0.13594E+03   -0.12608E+02  4489   0.760E+00    0.117E+01
RMM:  14    -0.228523525517E+04   -0.22875E+02   -0.19842E+01  4519   0.400E+00    0.765E+00
RMM:  15    -0.230705186612E+04   -0.21817E+02   -0.21264E+01  4492   0.296E+00    0.495E+00
RMM:  16    -0.230969491126E+04   -0.26430E+01   -0.27708E+00  4526   0.184E+00    0.289E+00
RMM:  17    -0.231404581333E+04   -0.43509E+01   -0.27568E+00  4482   0.964E-01    0.156E+00
RMM:  18    -0.231609186152E+04   -0.20460E+01   -0.11814E+00  4520   0.750E-01    0.813E-01
RMM:  19    -0.231660936855E+04   -0.51751E+00   -0.39614E-01  4832   0.390E-01    0.508E-01
RMM:  20    -0.231672341785E+04   -0.11405E+00   -0.10174E-01  4762   0.201E-01    0.388E-01
RMM:  21    -0.231678362016E+04   -0.60202E-01   -0.38704E-02  4562   0.118E-01    0.185E-01
RMM:  22    -0.231680680936E+04   -0.23189E-01   -0.13568E-02  4653   0.892E-02    0.138E-01
RMM:  23    -0.231681667547E+04   -0.98661E-02   -0.39851E-03  4873   0.457E-02    0.101E-01
RMM:  24    -0.231682991134E+04   -0.13236E-01   -0.34990E-03  4485   0.407E-02    0.535E-02
RMM:  25    -0.231683734824E+04   -0.74369E-02   -0.19563E-03  4558   0.334E-02    0.393E-02
RMM:  26    -0.231684070289E+04   -0.33547E-02   -0.98211E-04  4391   0.239E-02    0.221E-02
RMM:  27    -0.231684219408E+04   -0.14912E-02   -0.49513E-04  4176   0.172E-02    0.130E-02
RMM:  28    -0.231684261638E+04   -0.42229E-03   -0.16291E-04  3913   0.118E-02    0.745E-03
RMM:  29    -0.231684280294E+04   -0.18656E-03   -0.72565E-05  3677   0.810E-03    0.393E-03
RMM:  30    -0.231684288210E+04   -0.79165E-04   -0.30376E-05  3304   0.586E-03    0.238E-03
RMM:  31    -0.231684292374E+04   -0.41639E-04   -0.17586E-05  3083   0.428E-03    0.137E-03
RMM:  32    -0.231684293520E+04   -0.11462E-04   -0.79605E-06  2926   0.323E-03    0.953E-04
RMM:  33    -0.231684293874E+04   -0.35400E-05   -0.35346E-06  2532   0.213E-03
   1 F= -.23373622E+04 E0= -.23373622E+04  d E =-.678640E-04  mag=     3.9994
       N       E                     dE             d eps       ncg     rms          rms(c)
DAV:   1    -0.231680102093E+04    0.41914E-01   -0.21100E+00  4280   0.607E-01    0.310E-01
RMM:   2    -0.231680048926E+04    0.53167E-03   -0.17901E-02  3741   0.454E-02    0.192E-01
RMM:   3    -0.231679979167E+04    0.69759E-03   -0.28968E-03  4393   0.225E-02    0.894E-02
RMM:   4    -0.231679987735E+04   -0.85680E-04   -0.93802E-04  3772   0.118E-02    0.129E-01
RMM:   5    -0.231679971810E+04    0.15925E-03   -0.18414E-04  2897   0.681E-03    0.190E-02
RMM:   6    -0.231679970987E+04    0.82230E-05   -0.51189E-05  2679   0.273E-03
   2 F= -.23373192E+04 E0= -.23373191E+04  d E =-.125171E-03  mag=     3.9991
       N       E                     dE             d eps       ncg     rms          rms(c)
DAV:   1    -0.231685377246E+04   -0.54054E-01   -0.83999E+00  4480   0.121E+00    0.633E-01
RMM:   2    -0.231684994730E+04    0.38252E-02   -0.62121E-02  4007   0.891E-02    0.380E-01
RMM:   3    -0.231684709025E+04    0.28571E-02   -0.10490E-02  4802   0.466E-02    0.177E-01
RMM:   4    -0.231684738584E+04   -0.29559E-03   -0.33546E-03  4550   0.217E-02    0.243E-01
RMM:   5    -0.231684681735E+04    0.56849E-03   -0.63847E-04  3489   0.110E-02    0.385E-02
RMM:   6    -0.231684678783E+04    0.29518E-04   -0.19211E-04  3091   0.463E-03    0.270E-02
RMM:   7    -0.231684678209E+04    0.57413E-05   -0.18755E-05  2768   0.344E-03
   3 F= -.23373659E+04 E0= -.23373659E+04  d E =-.336906E-04  mag=     3.9996
       N       E                     dE             d eps       ncg     rms          rms(c)
DAV:   1    -0.231682930124E+04    0.17487E-01   -0.42468E+00  4320   0.892E-01    0.451E-01
RMM:   2    -0.231682785199E+04    0.14493E-02   -0.28421E-02  3850   0.590E-02    0.273E-01
RMM:   3    -0.231682727327E+04    0.57871E-03   -0.60915E-03  4658   0.314E-02    0.276E-01
RMM:   4    -0.231682668279E+04    0.59049E-03   -0.21771E-03  4409   0.182E-02    0.152E-01
RMM:   5    -0.231682650904E+04    0.17375E-03   -0.26269E-04  3321   0.743E-03    0.298E-02
RMM:   6    -0.231682648641E+04    0.22627E-04   -0.68464E-05  2889   0.368E-03    0.177E-02
RMM:   7    -0.231682648339E+04    0.30151E-05   -0.13461E-05  2730   0.252E-03
   4 F= -.23373458E+04 E0= -.23373458E+04  d E =-.719482E-04  mag=     3.9995
       N       E                     dE             d eps       ncg     rms          rms(c)
DAV:   1    -0.231682379412E+04    0.26923E-02   -0.84715E+00  4640   0.125E+00    0.639E-01
RMM:   2    -0.231682086000E+04    0.29341E-02   -0.50395E-02  3928   0.831E-02    0.392E-01
RMM:   3    -0.231682110195E+04   -0.24195E-03   -0.17335E-02  5107   0.517E-02    0.546E-01
RMM:   4    -0.231681831760E+04    0.27844E-02   -0.35953E-03  4917   0.241E-02    0.671E-02
RMM:   5    -0.231681823369E+04    0.83907E-04   -0.40375E-04  3311   0.703E-03    0.380E-02
RMM:   6    -0.231681820722E+04    0.26471E-04   -0.10153E-04  3116   0.550E-03    0.260E-02
RMM:   7    -0.231681820268E+04    0.45465E-05   -0.24931E-05  3016   0.319E-03
   5 F= -.23373375E+04 E0= -.23373375E+04  d E =-.661634E-04  mag=     3.9995
       N       E                     dE             d eps       ncg     rms          rms(c)
DAV:   1    -0.231682212453E+04   -0.39173E-02   -0.42321E+00  4560   0.892E-01    0.430E-01
RMM:   2    -0.231682101642E+04    0.11081E-02   -0.28810E-02  3816   0.592E-02    0.261E-01
RMM:   3    -0.231682026473E+04    0.75169E-03   -0.55016E-03  4606   0.286E-02    0.216E-01
RMM:   4    -0.231681999898E+04    0.26575E-03   -0.19052E-03  4168   0.173E-02    0.171E-01
RMM:   5    -0.231681975185E+04    0.24713E-03   -0.29465E-04  3265   0.728E-03    0.271E-02
RMM:   6    -0.231681973618E+04    0.15666E-04   -0.69047E-05  2852   0.348E-03    0.161E-02
RMM:   7    -0.231681973425E+04    0.19377E-05   -0.11544E-05  2731   0.236E-03
   6 F= -.23373392E+04 E0= -.23373391E+04  d E =-.126684E-03  mag=     3.9991
       N       E                     dE             d eps       ncg     rms          rms(c)
DAV:   1    -0.231683300504E+04   -0.13269E-01   -0.83991E+00  4680   0.119E+00    0.600E-01
RMM:   2    -0.231683133295E+04    0.16721E-02   -0.60781E-02  3952   0.892E-02    0.403E-01
RMM:   3    -0.231683127956E+04    0.53388E-04   -0.10074E-02  4615   0.472E-02    0.533E-01
RMM:   4    -0.231682855800E+04    0.27216E-02   -0.58292E-03  4584   0.277E-02    0.165E-01
RMM:   5    -0.231682841995E+04    0.13805E-03   -0.91315E-04  3696   0.160E-02    0.452E-02
RMM:   6    -0.231682838096E+04    0.38985E-04   -0.10736E-04  3041   0.514E-03    0.238E-02
RMM:   7    -0.231682837331E+04    0.76550E-05   -0.25386E-05  2815   0.277E-03
   7 F= -.23373475E+04 E0= -.23373475E+04  d E =-.346943E-04  mag=     3.9996
       N       E                     dE             d eps       ncg     rms          rms(c)
DAV:   1    -0.231689157979E+04   -0.63199E-01   -0.46093E+00  4480   0.904E-01    0.529E-01
RMM:   2    -0.231689538225E+04   -0.38025E-02   -0.67840E-02  4560   0.846E-02    0.636E-01
RMM:   3    -0.231689205482E+04    0.33274E-02   -0.86968E-03  4684   0.398E-02    0.362E-01
RMM:   4    -0.231689057764E+04    0.14772E-02   -0.34840E-03  4309   0.212E-02    0.118E-01
RMM:   5    -0.231689056215E+04    0.15496E-04   -0.79367E-04  3666   0.156E-02    0.667E-02
RMM:   6    -0.231689051376E+04    0.48386E-04   -0.12090E-04  3197   0.542E-03    0.288E-02
RMM:   7    -0.231689050551E+04    0.82544E-05   -0.27231E-05  2934   0.348E-03
   8 F= -.23374094E+04 E0= -.23374094E+04  d E =-.112564E-05  mag=     3.9999
       N       E                     dE             d eps       ncg     rms          rms(c)
DAV:   1    -0.231675517110E+04    0.13534E+00   -0.83598E+00  4480   0.110E+00    0.770E-01
RMM:   2    -0.231676630435E+04   -0.11133E-01   -0.11294E-01  4797   0.124E-01    0.988E-01
RMM:   3    -0.231675943073E+04    0.68736E-02   -0.18879E-02  4670   0.661E-02    0.471E-01
RMM:   4    -0.231675727981E+04    0.21509E-02   -0.54944E-03  4667   0.284E-02    0.150E-01
RMM:   5    -0.231675743453E+04   -0.15471E-03   -0.82283E-04  3891   0.194E-02    0.974E-02
RMM:   6    -0.231675738993E+04    0.44601E-04   -0.20243E-04  3361   0.724E-03    0.505E-02
RMM:   7    -0.231675737822E+04    0.11713E-04   -0.61709E-05  2996   0.518E-03    0.232E-02
RMM:   8    -0.231675738387E+04   -0.56557E-05   -0.17098E-05  2922   0.330E-03
   9 F= -.23372771E+04 E0= -.23372762E+04  d E =-.180845E-02  mag=     3.9854
       N       E                     dE             d eps       ncg     rms          rms(c)
DAV:   1    -0.231684980082E+04   -0.92423E-01   -0.40522E+00  4520   0.757E-01    0.510E-01
RMM:   2    -0.231685430813E+04   -0.45073E-02   -0.44693E-02  4703   0.749E-02    0.627E-01
RMM:   3    -0.231685119384E+04    0.31143E-02   -0.71523E-03  4602   0.350E-02    0.316E-01
RMM:   4    -0.231685019466E+04    0.99918E-03   -0.21038E-03  4471   0.180E-02    0.112E-01
RMM:   5    -0.231685025954E+04   -0.64880E-04   -0.39473E-04  3614   0.120E-02    0.679E-02
RMM:   6    -0.231685024542E+04    0.14117E-04   -0.92322E-05  3066   0.524E-03    0.366E-02
RMM:   7    -0.231685023481E+04    0.10605E-04   -0.30260E-05  2892   0.359E-03    0.193E-02
RMM:   8    -0.231685023353E+04    0.12858E-05   -0.10228E-05  2842   0.254E-03
  10 F= -.23373695E+04 E0= -.23373695E+04  d E =-.352844E-04  mag=     3.9959
       N       E                     dE             d eps       ncg     rms          rms(c)
DAV:   1    -0.231682833554E+04    0.21899E-01   -0.75658E+00  4480   0.959E-01    0.564E-01
RMM:   2    -0.231683037986E+04   -0.20443E-02   -0.43014E-02  4259   0.729E-02    0.367E-01
RMM:   3    -0.231683132462E+04   -0.94476E-03   -0.72158E-03  4346   0.398E-02    0.470E-01
RMM:   4    -0.231682939323E+04    0.19314E-02   -0.33457E-03  4698   0.218E-02    0.161E-01
RMM:   5    -0.231682941960E+04   -0.26371E-04   -0.55086E-04  3613   0.119E-02    0.653E-02
RMM:   6    -0.231682944226E+04   -0.22657E-04   -0.94026E-05  3016   0.601E-03    0.416E-02
RMM:   7    -0.231682943184E+04    0.10412E-04   -0.37547E-05  2919   0.356E-03    0.192E-02
RMM:   8    -0.231682943536E+04   -0.35186E-05   -0.99620E-06  2840   0.260E-03
  11 F= -.23373488E+04 E0= -.23373487E+04  d E =-.128017E-03  mag=     3.9982
       N       E                     dE             d eps       ncg     rms          rms(c)
DAV:   1    -0.231686814030E+04   -0.38708E-01   -0.38894E+00  4480   0.715E-01    0.407E-01
RMM:   2    -0.231687087440E+04   -0.27341E-02   -0.34953E-02  4361   0.626E-02    0.329E-01
RMM:   3    -0.231687067846E+04    0.19594E-03   -0.42440E-03  4391   0.307E-02    0.349E-01
RMM:   4    -0.231686959640E+04    0.10821E-02   -0.20859E-03  4259   0.182E-02    0.101E-01
RMM:   5    -0.231686963952E+04   -0.43118E-04   -0.45207E-04  3450   0.107E-02    0.470E-02
RMM:   6    -0.231686965221E+04   -0.12688E-04   -0.60974E-05  2954   0.578E-03    0.301E-02
RMM:   7    -0.231686964658E+04    0.56222E-05   -0.23035E-05  2853   0.316E-03
  12 F= -.23373888E+04 E0= -.23373888E+04  d E =-.214271E-04  mag=     3.9994
       N       E                     dE             d eps       ncg     rms          rms(c)
DAV:   1    -0.231679635088E+04    0.73301E-01   -0.76728E+00  4480   0.103E+00    0.616E-01
RMM:   2    -0.231680390674E+04   -0.75559E-02   -0.74873E-02  4808   0.985E-02    0.711E-01
RMM:   3    -0.231680009870E+04    0.38080E-02   -0.10262E-02  4801   0.485E-02    0.407E-01
RMM:   4    -0.231679870191E+04    0.13968E-02   -0.32523E-03  4344   0.234E-02    0.142E-01
RMM:   5    -0.231679877622E+04   -0.74305E-04   -0.91994E-04  3783   0.171E-02    0.684E-02
RMM:   6    -0.231679876043E+04    0.15787E-04   -0.13444E-04  3168   0.678E-03    0.316E-02
RMM:   7    -0.231679875529E+04    0.51428E-05   -0.32171E-05  2936   0.354E-03
  13 F= -.23373183E+04 E0= -.23373182E+04  d E =-.214150E-03  mag=     3.9985
       N       E                     dE             d eps       ncg     rms          rms(c)
DAV:   1    -0.231686297989E+04   -0.64219E-01   -0.22368E+00  4400   0.553E-01    0.354E-01
RMM:   2    -0.231686522368E+04   -0.22438E-02   -0.25309E-02  4512   0.546E-02    0.367E-01
RMM:   3    -0.231686457917E+04    0.64451E-03   -0.31891E-03  4181   0.250E-02    0.259E-01
RMM:   4    -0.231686401223E+04    0.56694E-03   -0.11956E-03  3805   0.142E-02    0.741E-02
RMM:   5    -0.231686405645E+04   -0.44216E-04   -0.30626E-04  3300   0.973E-03    0.363E-02
RMM:   6    -0.231686404710E+04    0.93487E-05   -0.37159E-05  2854   0.405E-03
  14 F= -.23373829E+04 E0= -.23373829E+04  d E =-.549108E-04  mag=     3.9992
       N       E                     dE             d eps       ncg     rms          rms(c)
DAV:   1    -0.231681420510E+04    0.49851E-01   -0.12063E+00  4800   0.405E-01    0.395E-01
RMM:   2    -0.231681328276E+04    0.92233E-03   -0.11443E-02  3663   0.362E-02    0.228E-01
RMM:   3    -0.231681309406E+04    0.18870E-03   -0.38116E-03  4345   0.211E-02    0.831E-02
RMM:   4    -0.231681302875E+04    0.65312E-04   -0.37451E-04  3355   0.884E-03    0.942E-02
RMM:   5    -0.231681294424E+04    0.84515E-04   -0.15692E-04  3011   0.561E-03    0.324E-02
RMM:   6    -0.231681293865E+04    0.55860E-05   -0.80376E-05  2988   0.395E-03
  15 F= -.23373327E+04 E0= -.23373327E+04  d E =-.827127E-04  mag=     3.9993
       N       E                     dE             d eps       ncg     rms          rms(c)
DAV:   1    -0.231683880692E+04   -0.25863E-01   -0.59873E-01  4200   0.291E-01    0.248E-01
RMM:   2    -0.231683869072E+04    0.11620E-03   -0.49175E-03  3452   0.221E-02    0.145E-01
RMM:   3    -0.231683865654E+04    0.34181E-04   -0.11846E-03  3891   0.117E-02    0.589E-02
RMM:   4    -0.231683864862E+04    0.79143E-05   -0.17079E-04  2820   0.636E-03    0.627E-02
RMM:   5    -0.231683860690E+04    0.41725E-04   -0.55721E-05  2726   0.348E-03    0.125E-02
RMM:   6    -0.231683860800E+04   -0.11060E-05   -0.13841E-05  2402   0.212E-03
  16 F= -.23373579E+04 E0= -.23373579E+04  d E =-.746930E-04  mag=     3.9994
       N       E                     dE             d eps       ncg     rms          rms(c)
DAV:   1    -0.231684310094E+04   -0.44940E-02   -0.11899E+00  4240   0.401E-01    0.310E-01
RMM:   2    -0.231684352009E+04   -0.41915E-03   -0.66219E-03  3451   0.280E-02    0.188E-01
RMM:   3    -0.231684368412E+04   -0.16403E-03   -0.12879E-03  3734   0.146E-02    0.125E-01
RMM:   4    -0.231684354316E+04    0.14096E-03   -0.24120E-04  3039   0.815E-03    0.216E-02
RMM:   5    -0.231684353892E+04    0.42388E-05   -0.27518E-05  2562   0.263E-03
  17 F= -.23373628E+04 E0= -.23373628E+04  d E =-.624044E-04  mag=     3.9995
       N       E                     dE             d eps       ncg     rms          rms(c)
DAV:   1    -0.231683220807E+04    0.11335E-01   -0.62414E-01  4480   0.300E-01    0.308E-01
RMM:   2    -0.231683168420E+04    0.52387E-03   -0.87572E-03  3513   0.295E-02    0.179E-01
RMM:   3    -0.231683154615E+04    0.13805E-03   -0.30024E-03  3991   0.199E-02    0.529E-02
RMM:   4    -0.231683144876E+04    0.97386E-04   -0.16342E-04  3085   0.621E-03    0.287E-02
RMM:   5    -0.231683143697E+04    0.11795E-04   -0.18615E-04  2968   0.420E-03    0.154E-02
RMM:   6    -0.231683143244E+04    0.45318E-05   -0.12645E-05  2376   0.292E-03
  18 F= -.23373508E+04 E0= -.23373507E+04  d E =-.823994E-04  mag=     3.9994
       N       E                     dE             d eps       ncg     rms          rms(c)
DAV:   1    -0.231683771040E+04   -0.62734E-02   -0.12669E+00  4760   0.412E-01    0.526E-01
RMM:   2    -0.231683457148E+04    0.31389E-02   -0.23888E-02  3758   0.516E-02    0.288E-01
RMM:   3    -0.231683410796E+04    0.46352E-03   -0.77693E-03  4380   0.380E-02    0.193E-01
RMM:   4    -0.231683382144E+04    0.28653E-03   -0.14353E-03  4141   0.142E-02    0.139E-01
RMM:   5    -0.231683359754E+04    0.22390E-03   -0.30650E-04  3471   0.705E-03    0.413E-02
RMM:   6    -0.231683358805E+04    0.94873E-05   -0.24452E-04  3255   0.555E-03    0.190E-02
RMM:   7    -0.231683357773E+04    0.10315E-04   -0.18380E-05  2527   0.341E-03    0.752E-03
RMM:   8    -0.231683357800E+04   -0.26925E-06   -0.16728E-05  2170   0.152E-03
  19 F= -.23373529E+04 E0= -.23373528E+04  d E =-.547060E-04  mag=     3.9995
       N       E                     dE             d eps       ncg     rms          rms(c)
DAV:   1    -0.231682525854E+04    0.83192E-02   -0.60266E-01  4880   0.321E-01    0.305E-01
RMM:   2    -0.231682525245E+04    0.60866E-05   -0.89651E-03  3568   0.330E-02    0.190E-01
RMM:   3    -0.231682498157E+04    0.27088E-03   -0.17782E-03  3729   0.183E-02    0.542E-02
RMM:   4    -0.231682497067E+04    0.10906E-04   -0.21287E-04  3050   0.819E-03    0.535E-02
RMM:   5    -0.231682493708E+04    0.33582E-04   -0.38596E-05  2591   0.348E-03    0.155E-02
RMM:   6    -0.231682493086E+04    0.62204E-05   -0.20898E-05  2391   0.209E-03
  20 F= -.23373444E+04 E0= -.23373443E+04  d E =-.731510E-04  mag=     3.9995
       N       E                     dE             d eps       ncg     rms          rms(c)
DAV:   1    -0.231685014020E+04   -0.25203E-01   -0.12103E+00  4800   0.440E-01    0.429E-01
RMM:   2    -0.231684879600E+04    0.13442E-02   -0.14770E-02  3816   0.395E-02    0.247E-01
RMM:   3    -0.231684890049E+04   -0.10449E-03   -0.49891E-03  4504   0.270E-02    0.232E-01
RMM:   4    -0.231684837304E+04    0.52745E-03   -0.80793E-04  3938   0.118E-02    0.692E-02
RMM:   5    -0.231684828736E+04    0.85688E-04   -0.38487E-04  3397   0.636E-03    0.304E-02
RMM:   6    -0.231684828259E+04    0.47631E-05   -0.61534E-05  2882   0.418E-03
  21 F= -.23373675E+04 E0= -.23373674E+04  d E =-.633639E-04  mag=     3.9995
       N       E                     dE             d eps       ncg     rms          rms(c)
DAV:   1    -0.231682275825E+04    0.25529E-01   -0.61074E-01  5040   0.303E-01    0.399E-01
RMM:   2    -0.231682062315E+04    0.21351E-02   -0.13639E-02  3876   0.378E-02    0.216E-01
RMM:   3    -0.231682052075E+04    0.10239E-03   -0.41341E-03  4316   0.248E-02    0.194E-01
RMM:   4    -0.231682016083E+04    0.35993E-03   -0.70542E-04  3780   0.108E-02    0.802E-02
RMM:   5    -0.231682007828E+04    0.82551E-04   -0.33895E-04  3402   0.622E-03    0.320E-02
RMM:   6    -0.231682006615E+04    0.12127E-04   -0.37278E-05  2661   0.400E-03    0.100E-02
RMM:   7    -0.231682006341E+04    0.27419E-05   -0.63067E-06  2388   0.178E-03
  22 F= -.23373398E+04 E0= -.23373397E+04  d E =-.683782E-04  mag=     3.9995
       N       E                     dE             d eps       ncg     rms          rms(c)
DAV:   1    -0.231685299596E+04   -0.32930E-01   -0.12061E+00  4920   0.439E-01    0.475E-01
RMM:   2    -0.231685045439E+04    0.25416E-02   -0.16220E-02  3931   0.434E-02    0.261E-01
RMM:   3    -0.231685019430E+04    0.26008E-03   -0.51410E-03  4240   0.292E-02    0.144E-01
RMM:   4    -0.231685007778E+04    0.11652E-03   -0.86124E-04  3821   0.120E-02    0.122E-01
RMM:   5    -0.231684990597E+04    0.17181E-03   -0.34786E-04  3643   0.697E-03    0.299E-02
RMM:   6    -0.231684990197E+04    0.39983E-05   -0.54737E-05  2882   0.418E-03
  23 F= -.23373688E+04 E0= -.23373688E+04  d E =-.682484E-04  mag=     3.9995
       N       E                     dE             d eps       ncg     rms          rms(c)
DAV:   1    -0.231683521873E+04    0.14687E-01   -0.60365E-01  4840   0.298E-01    0.305E-01
RMM:   2    -0.231683447680E+04    0.74193E-03   -0.75677E-03  3675   0.283E-02    0.173E-01
RMM:   3    -0.231683464808E+04   -0.17128E-03   -0.22192E-03  4212   0.190E-02    0.201E-01
RMM:   4    -0.231683427162E+04    0.37646E-03   -0.57067E-04  3457   0.992E-03    0.499E-02
RMM:   5    -0.231683424481E+04    0.26812E-04   -0.19319E-04  3209   0.496E-03    0.274E-02
RMM:   6    -0.231683423647E+04    0.83401E-05   -0.23875E-05  2677   0.318E-03
  24 F= -.23373539E+04 E0= -.23373539E+04  d E =-.630240E-04  mag=     3.9995
       N       E                     dE             d eps       ncg     rms          rms(c)
DAV:   1    -0.231684717460E+04   -0.12930E-01   -0.11867E+00  4640   0.422E-01    0.307E-01
RMM:   2    -0.231684756970E+04   -0.39510E-03   -0.67090E-03  3575   0.278E-02    0.188E-01
RMM:   3    -0.231684799694E+04   -0.42724E-03   -0.17204E-03  4078   0.182E-02    0.227E-01
RMM:   4    -0.231684752030E+04    0.47664E-03   -0.50059E-04  3280   0.970E-03    0.176E-02
RMM:   5    -0.231684751591E+04    0.43924E-05   -0.74000E-05  2876   0.355E-03
  25 F= -.23373664E+04 E0= -.23373664E+04  d E =-.724950E-04  mag=     3.9995
       N       E                     dE             d eps       ncg     rms          rms(c)
DAV:   1    -0.231683653188E+04    0.10988E-01   -0.59244E-01  4600   0.304E-01    0.238E-01
RMM:   2    -0.231683660990E+04   -0.78014E-04   -0.56293E-03  3536   0.252E-02    0.142E-01
RMM:   3    -0.231683659573E+04    0.14169E-04   -0.12401E-03  3860   0.151E-02    0.590E-02
RMM:   4    -0.231683658486E+04    0.10870E-04   -0.19238E-04  2958   0.598E-03    0.555E-02
RMM:   5    -0.231683654958E+04    0.35282E-04   -0.62537E-05  2744   0.408E-03    0.145E-02
RMM:   6    -0.231683654815E+04    0.14247E-05   -0.21950E-05  2514   0.234E-03
  26 F= -.23373559E+04 E0= -.23373559E+04  d E =-.750014E-04  mag=     3.9994
       N       E                     dE             d eps       ncg     rms          rms(c)
DAV:   1    -0.231684145713E+04   -0.49076E-02   -0.12047E+00  4520   0.418E-01    0.371E-01
RMM:   2    -0.231684101103E+04    0.44610E-03   -0.10318E-02  3713   0.324E-02    0.217E-01
RMM:   3    -0.231684090971E+04    0.10132E-03   -0.26738E-03  4042   0.212E-02    0.777E-02
RMM:   4    -0.231684090204E+04    0.76644E-05   -0.36192E-04  3377   0.843E-03    0.883E-02
RMM:   5    -0.231684081358E+04    0.88461E-04   -0.16074E-04  3073   0.555E-03    0.161E-02
RMM:   6    -0.231684081415E+04   -0.57292E-06   -0.21147E-05  2627   0.283E-03
  27 F= -.23373601E+04 E0= -.23373601E+04  d E =-.614179E-04  mag=     3.9995
       N       E                     dE             d eps       ncg     rms          rms(c)
DAV:   1    -0.231684243230E+04   -0.16187E-02   -0.60425E-01  4840   0.273E-01    0.252E-01
RMM:   2    -0.231684236547E+04    0.66825E-04   -0.43460E-03  3543   0.215E-02    0.150E-01
RMM:   3    -0.231684263774E+04   -0.27227E-03   -0.13204E-03  3932   0.139E-02    0.182E-01
RMM:   4    -0.231684232737E+04    0.31037E-03   -0.36156E-04  3212   0.842E-03    0.299E-02
RMM:   5    -0.231684231712E+04    0.10246E-04   -0.74505E-05  2843   0.341E-03    0.170E-02
RMM:   6    -0.231684231429E+04    0.28273E-05   -0.16587E-05  2588   0.236E-03
  28 F= -.23373613E+04 E0= -.23373612E+04  d E =-.683339E-04  mag=     3.9995
       N       E                     dE             d eps       ncg     rms          rms(c)
DAV:   1    -0.231682730620E+04    0.15011E-01   -0.12108E+00  5000   0.418E-01    0.527E-01
RMM:   2    -0.231682363263E+04    0.36736E-02   -0.20897E-02  3981   0.499E-02    0.286E-01
RMM:   3    -0.231682377269E+04   -0.14006E-03   -0.68929E-03  4634   0.346E-02    0.297E-01
RMM:   4    -0.231682296996E+04    0.80273E-03   -0.16128E-03  4109   0.155E-02    0.957E-02
RMM:   5    -0.231682284365E+04    0.12631E-03   -0.50142E-04  3672   0.779E-03    0.436E-02
RMM:   6    -0.231682282875E+04    0.14900E-04   -0.11159E-04  3111   0.493E-03    0.145E-02
RMM:   7    -0.231682282226E+04    0.64825E-05   -0.14411E-05  2633   0.273E-03
  29 F= -.23373425E+04 E0= -.23373425E+04  d E =-.686598E-04  mag=     3.9995
       N       E                     dE             d eps       ncg     rms          rms(c)
DAV:   1    -0.231683234118E+04   -0.95124E-02   -0.59310E-01  4640   0.294E-01    0.261E-01
RMM:   2    -0.231683209542E+04    0.24576E-03   -0.57753E-03  3590   0.249E-02    0.151E-01
RMM:   3    -0.231683206187E+04    0.33549E-04   -0.14866E-03  3807   0.158E-02    0.610E-02
RMM:   4    -0.231683206058E+04    0.12923E-05   -0.23090E-04  3076   0.677E-03    0.708E-02
RMM:   5    -0.231683200806E+04    0.52521E-04   -0.88209E-05  2885   0.449E-03    0.161E-02
RMM:   6    -0.231683200736E+04    0.69558E-06   -0.15106E-05  2459   0.230E-03
  30 F= -.23373518E+04 E0= -.23373518E+04  d E =-.653620E-04  mag=     3.9995
       N       E                     dE             d eps       ncg     rms          rms(c)
DAV:   1    -0.231684961333E+04   -0.17605E-01   -0.11808E+00  4600   0.407E-01    0.321E-01
RMM:   2    -0.231684990251E+04   -0.28918E-03   -0.72939E-03  3651   0.292E-02    0.197E-01
RMM:   3    -0.231685067204E+04   -0.76953E-03   -0.21949E-03  4192   0.202E-02    0.297E-01
RMM:   4    -0.231684986836E+04    0.80368E-03   -0.80936E-04  3616   0.120E-02    0.319E-02
RMM:   5    -0.231684986673E+04    0.16295E-05   -0.11534E-04  2973   0.498E-03    0.199E-02
RMM:   6    -0.231684986257E+04    0.41559E-05   -0.25699E-05  2767   0.286E-03
  31 F= -.23373687E+04 E0= -.23373687E+04  d E =-.708347E-04  mag=     3.9995
       N       E                     dE             d eps       ncg     rms          rms(c)
DAV:   1    -0.231684636259E+04    0.35041E-02   -0.57258E-01  4520   0.295E-01    0.216E-01
RMM:   2    -0.231684686574E+04   -0.50315E-03   -0.49190E-03  3913   0.254E-02    0.201E-01
RMM:   3    -0.231684673051E+04    0.13523E-03   -0.93034E-04  3577   0.129E-02    0.170E-01
RMM:   4    -0.231684652388E+04    0.20663E-03   -0.37721E-04  3341   0.819E-03    0.355E-02
RMM:   5    -0.231684653567E+04   -0.11786E-04   -0.57407E-05  2876   0.470E-03    0.206E-02
RMM:   6    -0.231684653364E+04    0.20230E-05   -0.85171E-06  2565   0.212E-03
  32 F= -.23373663E+04 E0= -.23373663E+04  d E =-.407038E-04  mag=     3.9996
       N       E                     dE             d eps       ncg     rms          rms(c)
DAV:   1    -0.231683422171E+04    0.12314E-01   -0.11079E+00  4480   0.323E-01    0.289E-01
RMM:   2    -0.231683521422E+04   -0.99252E-03   -0.76978E-03  4323   0.304E-02    0.322E-01
RMM:   3    -0.231683450130E+04    0.71292E-03   -0.15608E-03  3931   0.154E-02    0.200E-01
RMM:   4    -0.231683418870E+04    0.31260E-03   -0.56453E-04  3499   0.927E-03    0.608E-02
RMM:   5    -0.231683420751E+04   -0.18803E-04   -0.12452E-04  2982   0.552E-03    0.355E-02
RMM:   6    -0.231683420392E+04    0.35860E-05   -0.21870E-05  2746   0.314E-03
  33 F= -.23373531E+04 E0= -.23373530E+04  d E =-.113902E-03  mag=     3.9993
       N       E                     dE             d eps       ncg     rms          rms(c)
DAV:   1    -0.231684463650E+04   -0.10429E-01   -0.55638E-01  4480   0.234E-01    0.212E-01
RMM:   2    -0.231684519598E+04   -0.55948E-03   -0.50917E-03  4205   0.240E-02    0.246E-01
RMM:   3    -0.231684473923E+04    0.45674E-03   -0.94467E-04  3591   0.120E-02    0.137E-01
RMM:   4    -0.231684457873E+04    0.16050E-03   -0.25080E-04  3274   0.683E-03    0.409E-02
RMM:   5    -0.231684457662E+04    0.21085E-05   -0.57448E-05  2940   0.419E-03
  34 F= -.23373642E+04 E0= -.23373642E+04  d E =-.526419E-04  mag=     3.9995
       N       E                     dE             d eps       ncg     rms          rms(c)
DAV:   1    -0.231683978138E+04    0.47974E-02   -0.11189E+00  4480   0.318E-01    0.279E-01
RMM:   2    -0.231684034619E+04   -0.56481E-03   -0.59184E-03  3855   0.255E-02    0.224E-01
RMM:   3    -0.231684029380E+04    0.52391E-04   -0.13799E-03  4069   0.138E-02    0.225E-01
RMM:   4    -0.231683986637E+04    0.42744E-03   -0.77396E-04  3538   0.106E-02    0.736E-02
RMM:   5    -0.231683987262E+04   -0.62493E-05   -0.11590E-04  3013   0.527E-03    0.371E-02
RMM:   6    -0.231683986600E+04    0.66135E-05   -0.18032E-05  2784   0.319E-03
  35 F= -.23373589E+04 E0= -.23373588E+04  d E =-.876410E-04  mag=     3.9994
       N       E                     dE             d eps       ncg     rms          rms(c)
DAV:   1    -0.231682220838E+04    0.17664E-01   -0.55225E-01  4480   0.232E-01    0.274E-01
RMM:   2    -0.231682193360E+04    0.27478E-03   -0.63503E-03  3974   0.240E-02    0.163E-01
RMM:   3    -0.231682183105E+04    0.10255E-03   -0.11472E-03  3707   0.160E-02    0.173E-01
RMM:   4    -0.231682167868E+04    0.15237E-03   -0.62133E-04  3304   0.943E-03    0.998E-02
RMM:   5    -0.231682160521E+04    0.73471E-04   -0.15870E-04  3005   0.629E-03    0.318E-02
RMM:   6    -0.231682160059E+04    0.46198E-05   -0.18364E-05  2785   0.293E-03
  36 F= -.23373415E+04 E0= -.23373413E+04  d E =-.444121E-03  mag=     3.9972
       N       E                     dE             d eps       ncg     rms          rms(c)
DAV:   1    -0.231686494536E+04   -0.43340E-01   -0.11249E+00  4520   0.333E-01    0.462E-01
RMM:   2    -0.231686416204E+04    0.78331E-03   -0.15951E-02  4377   0.397E-02    0.344E-01
RMM:   3    -0.231686411967E+04    0.42375E-04   -0.40505E-03  4648   0.266E-02    0.374E-01
RMM:   4    -0.231686288405E+04    0.12356E-02   -0.20268E-03  4050   0.171E-02    0.119E-01
RMM:   5    -0.231686275047E+04    0.13358E-03   -0.38006E-04  3627   0.815E-03    0.352E-02
RMM:   6    -0.231686274812E+04    0.23536E-05   -0.41743E-05  2974   0.441E-03
  37 F= -.23373815E+04 E0= -.23373814E+04  d E =-.748232E-05  mag=     3.9989
