       N       E                     dE             d eps       ncg     rms          rms(c)
DAV:   1     0.120735521576E+05    0.12074E+05   -0.81899E+05  4560   0.138E+03
DAV:   2    -0.121430712129E+04   -0.13288E+05   -0.12747E+05  5400   0.318E+02
DAV:   3    -0.248596839258E+04   -0.12717E+04   -0.12622E+04  5520   0.102E+02
DAV:   4    -0.251278507331E+04   -0.26817E+02   -0.26707E+02  5600   0.180E+01
DAV:   5    -0.251350548474E+04   -0.72041E+00   -0.71913E+00  5800   0.252E+00    0.170E+02
RMM:   6    -0.147346939852E+04    0.10400E+04   -0.18717E+03  4488   0.373E+01    0.727E+01
RMM:   7    -0.163773940939E+04   -0.16427E+03   -0.25531E+02  4951   0.130E+01    0.516E+01
RMM:   8    -0.169338448164E+04   -0.55645E+02   -0.64150E+01  5060   0.746E+00    0.391E+01
RMM:   9    -0.179814265363E+04   -0.10476E+03   -0.56237E+01  4780   0.731E+00    0.270E+01
RMM:  10    -0.194009153055E+04   -0.14195E+03   -0.52149E+01  4859   0.653E+00    0.174E+01
RMM:  11    -0.207065530167E+04   -0.13056E+03   -0.68287E+01  4536   0.620E+00    0.133E+01
RMM:  12    -0.220598656286E+04   -0.13533E+03   -0.10904E+02  4541   0.748E+00    0.793E+00
RMM:  13    -0.228716377173E+04   -0.81177E+02   -0.79853E+01  4636   0.590E+00    0.396E+00
RMM:  14    -0.230138998126E+04   -0.14226E+02   -0.15494E+01  4794   0.331E+00    0.252E+00
RMM:  15    -0.230543121626E+04   -0.40412E+01   -0.51933E+00  5050   0.143E+00    0.158E+00
RMM:  16    -0.230686591679E+04   -0.14347E+01   -0.97495E-01  4923   0.806E-01    0.103E+00
RMM:  17    -0.230722235560E+04   -0.35644E+00   -0.20117E-01  4903   0.382E-01    0.645E-01
RMM:  18    -0.230738970389E+04   -0.16735E+00   -0.71357E-02  4631   0.215E-01    0.281E-01
RMM:  19    -0.230741170183E+04   -0.21998E-01   -0.20954E-02  4809   0.133E-01    0.196E-01
RMM:  20    -0.230742543080E+04   -0.13729E-01   -0.53756E-03  4703   0.699E-02    0.125E-01
RMM:  21    -0.230743833512E+04   -0.12904E-01   -0.38945E-03  4483   0.549E-02    0.847E-02
RMM:  22    -0.230744559685E+04   -0.72617E-02   -0.19842E-03  4569   0.373E-02    0.639E-02
RMM:  23    -0.230745237932E+04   -0.67825E-02   -0.19226E-03  4531   0.337E-02    0.358E-02
RMM:  24    -0.230745653230E+04   -0.41530E-02   -0.13283E-03  4623   0.284E-02    0.243E-02
RMM:  25    -0.230745794337E+04   -0.14111E-02   -0.53598E-04  4322   0.185E-02    0.130E-02
RMM:  26    -0.230745841913E+04   -0.47575E-03   -0.16802E-04  3927   0.109E-02    0.761E-03
RMM:  27    -0.230745860559E+04   -0.18646E-03   -0.51885E-05  3599   0.715E-03    0.483E-03
RMM:  28    -0.230745870005E+04   -0.94462E-04   -0.21761E-05  3224   0.471E-03    0.328E-03
RMM:  29    -0.230745877541E+04   -0.75360E-04   -0.19533E-05  3197   0.406E-03    0.218E-03
RMM:  30    -0.230745878935E+04   -0.13945E-04   -0.68472E-06  2928   0.318E-03    0.121E-03
RMM:  31    -0.230745879337E+04   -0.40105E-05   -0.29329E-06  2478   0.196E-03
   1 F= -.23275096E+04 E0= -.23275088E+04  d E =-.157811E-02  mag=     2.9838
       N       E                     dE             d eps       ncg     rms          rms(c)
DAV:   1    -0.230742896174E+04    0.29828E-01   -0.21052E+00  4280   0.651E-01    0.281E-01
RMM:   2    -0.230742834898E+04    0.61276E-03   -0.95729E-03  3816   0.415E-02    0.164E-01
RMM:   3    -0.230742785603E+04    0.49296E-03   -0.23585E-03  4346   0.163E-02    0.413E-02
RMM:   4    -0.230742784869E+04    0.73325E-05   -0.23802E-04  3259   0.112E-02    0.196E-02
RMM:   5    -0.230742784368E+04    0.50184E-05   -0.31905E-05  2825   0.275E-03
   2 F= -.23274785E+04 E0= -.23274775E+04  d E =-.188742E-02  mag=     2.9817
       N       E                     dE             d eps       ncg     rms          rms(c)
DAV:   1    -0.230746847650E+04   -0.40628E-01   -0.83568E+00  4400   0.127E+00    0.565E-01
RMM:   2    -0.230746528799E+04    0.31885E-02   -0.33466E-02  4004   0.852E-02    0.326E-01
RMM:   3    -0.230746334868E+04    0.19393E-02   -0.87421E-03  4867   0.371E-02    0.846E-02
RMM:   4    -0.230746336102E+04   -0.12338E-04   -0.98335E-04  3954   0.188E-02    0.394E-02
RMM:   5    -0.230746333727E+04    0.23744E-04   -0.89869E-05  3220   0.472E-03    0.234E-02
RMM:   6    -0.230746333258E+04    0.46946E-05   -0.38213E-05  3059   0.352E-03
   3 F= -.23275144E+04 E0= -.23275137E+04  d E =-.139190E-02  mag=     2.9844
       N       E                     dE             d eps       ncg     rms          rms(c)
DAV:   1    -0.230744856692E+04    0.14770E-01   -0.42465E+00  4480   0.102E+00    0.452E-01
RMM:   2    -0.230744654068E+04    0.20262E-02   -0.19286E-02  3955   0.638E-02    0.264E-01
RMM:   3    -0.230744536431E+04    0.11764E-02   -0.53491E-03  4786   0.256E-02    0.687E-02
RMM:   4    -0.230744536004E+04    0.42639E-05   -0.58920E-04  3644   0.161E-02    0.254E-02
RMM:   5    -0.230744534638E+04    0.13663E-04   -0.62390E-05  3015   0.388E-03    0.156E-02
RMM:   6    -0.230744533998E+04    0.64022E-05   -0.25024E-05  2886   0.275E-03
   4 F= -.23274962E+04 E0= -.23274953E+04  d E =-.178380E-02  mag=     2.9824
       N       E                     dE             d eps       ncg     rms          rms(c)
DAV:   1    -0.230745580428E+04   -0.10458E-01   -0.83802E+00  4400   0.121E+00    0.528E-01
RMM:   2    -0.230745301610E+04    0.27882E-02   -0.30454E-02  4002   0.770E-02    0.301E-01
RMM:   3    -0.230745112749E+04    0.18886E-02   -0.75143E-03  4971   0.330E-02    0.738E-02
RMM:   4    -0.230745116050E+04   -0.33014E-04   -0.77965E-04  3687   0.182E-02    0.359E-02
RMM:   5    -0.230745115001E+04    0.10493E-04   -0.98199E-05  3190   0.445E-03    0.210E-02
RMM:   6    -0.230745114707E+04    0.29359E-05   -0.32458E-05  3012   0.326E-03
   5 F= -.23275020E+04 E0= -.23275013E+04  d E =-.144865E-02  mag=     2.9840
       N       E                     dE             d eps       ncg     rms          rms(c)
DAV:   1    -0.230741793409E+04    0.33216E-01   -0.43416E+00  4480   0.975E-01    0.508E-01
RMM:   2    -0.230741261620E+04    0.53179E-02   -0.34076E-02  3945   0.698E-02    0.263E-01
RMM:   3    -0.230741118254E+04    0.14337E-02   -0.44750E-03  4934   0.295E-02    0.114E-01
RMM:   4    -0.230741103776E+04    0.14479E-03   -0.12171E-03  4143   0.124E-02    0.373E-02
RMM:   5    -0.230741102093E+04    0.16825E-04   -0.98434E-05  3151   0.832E-03    0.178E-02
RMM:   6    -0.230741102267E+04   -0.17372E-05   -0.23571E-05  2927   0.289E-03
   6 F= -.23274616E+04 E0= -.23274606E+04  d E =-.195290E-02  mag=     2.9807
       N       E                     dE             d eps       ncg     rms          rms(c)
DAV:   1    -0.230746640799E+04   -0.55387E-01   -0.87784E+00  4440   0.143E+00    0.800E-01
RMM:   2    -0.230745178028E+04    0.14628E-01   -0.93377E-02  4055   0.115E-01    0.419E-01
RMM:   3    -0.230744775338E+04    0.40269E-02   -0.99245E-03  5249   0.484E-02    0.202E-01
RMM:   4    -0.230744726836E+04    0.48502E-03   -0.38495E-03  4272   0.210E-02    0.607E-02
RMM:   5    -0.230744719506E+04    0.73298E-04   -0.31581E-04  3549   0.164E-02    0.284E-02
RMM:   6    -0.230744719343E+04    0.16384E-05   -0.63105E-05  3336   0.437E-03
   7 F= -.23274983E+04 E0= -.23274977E+04  d E =-.127535E-02  mag=     2.9848
       N       E                     dE             d eps       ncg     rms          rms(c)
DAV:   1    -0.230748436521E+04   -0.37170E-01   -0.40497E+00  4600   0.918E-01    0.488E-01
RMM:   2    -0.230748095386E+04    0.34113E-02   -0.34273E-02  4019   0.724E-02    0.251E-01
RMM:   3    -0.230747984580E+04    0.11081E-02   -0.36906E-03  4835   0.306E-02    0.132E-01
RMM:   4    -0.230747981358E+04    0.32224E-04   -0.14756E-03  4238   0.132E-02    0.651E-02
RMM:   5    -0.230747979654E+04    0.17034E-04   -0.12243E-04  3206   0.945E-03    0.357E-02
RMM:   6    -0.230747979925E+04   -0.27031E-05   -0.49192E-05  3108   0.383E-03
   8 F= -.23275306E+04 E0= -.23275305E+04  d E =-.307009E-03  mag=     2.9934
       N       E                     dE             d eps       ncg     rms          rms(c)
DAV:   1    -0.230743083805E+04    0.48958E-01   -0.78386E+00  4480   0.108E+00    0.593E-01
RMM:   2    -0.230743214025E+04   -0.13022E-02   -0.37093E-02  4211   0.776E-02    0.346E-01
RMM:   3    -0.230743085310E+04    0.12872E-02   -0.43988E-03  4818   0.375E-02    0.204E-01
RMM:   4    -0.230743110104E+04   -0.24794E-03   -0.21885E-03  4344   0.185E-02    0.132E-01
RMM:   5    -0.230743111056E+04   -0.95246E-05   -0.42676E-04  3781   0.143E-02    0.841E-02
RMM:   6    -0.230743109241E+04    0.18154E-04   -0.40557E-04  4033   0.981E-03    0.523E-02
RMM:   7    -0.230743122303E+04   -0.13062E-03   -0.76350E-05  3157   0.674E-03    0.398E-02
RMM:   8    -0.230743136434E+04   -0.14131E-03   -0.77584E-05  3270   0.506E-03    0.264E-02
RMM:   9    -0.230743147462E+04   -0.11028E-03   -0.46301E-05  3176   0.457E-03    0.145E-02
RMM:  10    -0.230743152565E+04   -0.51033E-04   -0.20500E-05  2936   0.385E-03    0.859E-03
RMM:  11    -0.230743154488E+04   -0.19229E-04   -0.52550E-06  2757   0.266E-03    0.781E-03
RMM:  12    -0.230743155714E+04   -0.12261E-04   -0.29184E-06  2613   0.179E-03    0.652E-03
RMM:  13    -0.230743156964E+04   -0.12501E-04   -0.45573E-06  2709   0.178E-03    0.394E-03
RMM:  14    -0.230743157632E+04   -0.66744E-05   -0.33744E-06  2650   0.158E-03
   9 F= -.23274824E+04 E0= -.23274778E+04  d E =-.921011E-02  mag=     2.8682
       N       E                     dE             d eps       ncg     rms          rms(c)
DAV:   1    -0.230746867196E+04   -0.37102E-01   -0.39234E+00  4640   0.809E-01    0.567E-01
RMM:   2    -0.230746985112E+04   -0.11792E-02   -0.24188E-02  4308   0.658E-02    0.282E-01
RMM:   3    -0.230746945157E+04    0.39955E-03   -0.24544E-03  4745   0.308E-02    0.158E-01
RMM:   4    -0.230746896824E+04    0.48332E-03   -0.15643E-03  4170   0.170E-02    0.657E-02
RMM:   5    -0.230746890723E+04    0.61014E-04   -0.17873E-04  3623   0.110E-02    0.328E-02
RMM:   6    -0.230746905830E+04   -0.15107E-03   -0.51817E-05  3251   0.475E-03    0.192E-02
RMM:   7    -0.230746918441E+04   -0.12611E-03   -0.15882E-05  2954   0.364E-03    0.143E-02
RMM:   8    -0.230746930254E+04   -0.11813E-03   -0.17042E-05  2972   0.310E-03    0.935E-03
RMM:   9    -0.230746936577E+04   -0.63228E-04   -0.99231E-06  2889   0.291E-03    0.704E-03
RMM:  10    -0.230746938601E+04   -0.20245E-04   -0.38577E-06  2695   0.230E-03    0.492E-03
RMM:  11    -0.230746941724E+04   -0.31228E-04   -0.51478E-06  2768   0.195E-03    0.293E-03
RMM:  12    -0.230746942649E+04   -0.92485E-05   -0.19131E-06  2641   0.182E-03
  10 F= -.23275202E+04 E0= -.23275201E+04  d E =-.256638E-03  mag=     2.9957
       N       E                     dE             d eps       ncg     rms          rms(c)
DAV:   1    -0.230744049638E+04    0.28921E-01   -0.78508E+00  4480   0.105E+00    0.589E-01
RMM:   2    -0.230744335301E+04   -0.28566E-02   -0.43022E-02  4240   0.792E-02    0.362E-01
RMM:   3    -0.230744232355E+04    0.10295E-02   -0.49818E-03  5080   0.395E-02    0.242E-01
RMM:   4    -0.230744226288E+04    0.60672E-04   -0.26916E-03  4691   0.198E-02    0.210E-01
RMM:   5    -0.230744189645E+04    0.36642E-03   -0.56550E-04  4014   0.141E-02    0.212E-01
RMM:   6    -0.230744179896E+04    0.97488E-04   -0.16375E-04  3295   0.604E-03    0.216E-01
RMM:   7    -0.230744223791E+04   -0.43894E-03   -0.15460E-03  4407   0.182E-02    0.122E-01
RMM:   8    -0.230744234108E+04   -0.10317E-03   -0.12868E-03  4476   0.171E-02    0.137E-01
RMM:   9    -0.230744180120E+04    0.53987E-03   -0.27803E-03  5018   0.245E-02    0.297E-01
RMM:  10    -0.230744231613E+04   -0.51493E-03   -0.92298E-04  4764   0.169E-02    0.151E-01
RMM:  11    -0.230744232948E+04   -0.13348E-04   -0.10594E-04  3439   0.686E-03    0.123E-01
RMM:  12    -0.230744249890E+04   -0.16942E-03   -0.42378E-04  4351   0.102E-02    0.708E-02
RMM:  13    -0.230744256447E+04   -0.65570E-04   -0.18445E-04  3589   0.814E-03    0.507E-02
RMM:  14    -0.230744262972E+04   -0.65254E-04   -0.14808E-04  3571   0.655E-03    0.429E-02
RMM:  15    -0.230744269165E+04   -0.61932E-04   -0.97695E-05  3333   0.625E-03    0.397E-02
RMM:  16    -0.230744275461E+04   -0.62961E-04   -0.14803E-04  3734   0.678E-03    0.354E-02
RMM:  17    -0.230744281692E+04   -0.62302E-04   -0.18863E-04  3784   0.751E-03    0.408E-02
RMM:  18    -0.230744286991E+04   -0.52997E-04   -0.15335E-04  3555   0.679E-03    0.514E-02
RMM:  19    -0.230744286659E+04    0.33198E-05   -0.16866E-05  2904   0.393E-03
  11 F= -.23274938E+04 E0= -.23274873E+04  d E =-.129508E-01  mag=     2.8097
       N       E                     dE             d eps       ncg     rms          rms(c)
DAV:   1    -0.230739419097E+04    0.48679E-01   -0.41613E+00  4440   0.903E-01    0.559E-01
RMM:   2    -0.230739527720E+04   -0.10862E-02   -0.43302E-02  4455   0.787E-02    0.387E-01
RMM:   3    -0.230739344641E+04    0.18308E-02   -0.68743E-03  5055   0.460E-02    0.198E-01
RMM:   4    -0.230739266977E+04    0.77665E-03   -0.26594E-03  4333   0.219E-02    0.890E-02
RMM:   5    -0.230739261365E+04    0.56119E-04   -0.39781E-04  3917   0.156E-02    0.673E-02
RMM:   6    -0.230739275805E+04   -0.14440E-03   -0.12955E-04  3478   0.665E-03    0.385E-02
RMM:   7    -0.230739296637E+04   -0.20832E-03   -0.65339E-05  3304   0.552E-03    0.225E-02
RMM:   8    -0.230739304561E+04   -0.79241E-04   -0.14369E-05  2916   0.365E-03    0.145E-02
RMM:   9    -0.230739314696E+04   -0.10135E-03   -0.13119E-05  2898   0.268E-03    0.105E-02
RMM:  10    -0.230739323120E+04   -0.84235E-04   -0.12198E-05  2936   0.286E-03    0.643E-03
RMM:  11    -0.230739326768E+04   -0.36487E-04   -0.58496E-06  2709   0.242E-03    0.447E-03
RMM:  12    -0.230739328409E+04   -0.16404E-04   -0.29658E-06  2667   0.196E-03    0.347E-03
RMM:  13    -0.230739330122E+04   -0.17137E-04   -0.36739E-06  2737   0.178E-03    0.159E-03
RMM:  14    -0.230739330422E+04   -0.29985E-05   -0.13740E-06  2562   0.162E-03
  12 F= -.23274447E+04 E0= -.23274425E+04  d E =-.424226E-02  mag=     2.9475
       N       E                     dE             d eps       ncg     rms          rms(c)
DAV:   1    -0.230746675055E+04   -0.73449E-01   -0.91232E+00  4480   0.138E+00    0.873E-01
RMM:   2    -0.230746120335E+04    0.55472E-02   -0.10937E-01  4270   0.131E-01    0.487E-01
RMM:   3    -0.230745636469E+04    0.48387E-02   -0.17037E-02  5565   0.607E-02    0.201E-01
RMM:   4    -0.230745629044E+04    0.74254E-04   -0.28473E-03  4775   0.197E-02    0.887E-02
RMM:   5    -0.230745614453E+04    0.14591E-03   -0.45380E-04  3935   0.118E-02    0.449E-02
RMM:   6    -0.230745615393E+04   -0.93994E-05   -0.79309E-05  3158   0.549E-03
  13 F= -.23275065E+04 E0= -.23275061E+04  d E =-.701048E-03  mag=     2.9779
       N       E                     dE             d eps       ncg     rms          rms(c)
DAV:   1    -0.230744347531E+04    0.12669E-01   -0.26091E+00  4400   0.753E-01    0.499E-01
RMM:   2    -0.230744167871E+04    0.17966E-02   -0.44134E-02  4121   0.756E-02    0.280E-01
RMM:   3    -0.230743989528E+04    0.17834E-02   -0.50569E-03  5205   0.338E-02    0.133E-01
RMM:   4    -0.230743980779E+04    0.87485E-04   -0.98274E-04  4280   0.118E-02    0.604E-02
RMM:   5    -0.230743977294E+04    0.34858E-04   -0.13098E-04  3215   0.747E-03    0.321E-02
RMM:   6    -0.230743977395E+04   -0.10140E-05   -0.36355E-05  2930   0.389E-03
  14 F= -.23274906E+04 E0= -.23274898E+04  d E =-.167519E-02  mag=     2.9819
       N       E                     dE             d eps       ncg     rms          rms(c)
DAV:   1    -0.230746958351E+04   -0.29811E-01   -0.12380E+00  4680   0.516E-01    0.468E-01
RMM:   2    -0.230746721107E+04    0.23724E-02   -0.14156E-02  4044   0.480E-02    0.254E-01
RMM:   3    -0.230746672976E+04    0.48132E-03   -0.14585E-03  4547   0.176E-02    0.127E-01
RMM:   4    -0.230746666863E+04    0.61128E-04   -0.40380E-04  3454   0.942E-03    0.376E-02
RMM:   5    -0.230746667230E+04   -0.36675E-05   -0.60564E-05  2998   0.588E-03
  15 F= -.23275175E+04 E0= -.23275168E+04  d E =-.152073E-02  mag=     2.9836
       N       E                     dE             d eps       ncg     rms          rms(c)
DAV:   1    -0.230744520903E+04    0.21460E-01   -0.63525E-01  4960   0.372E-01    0.396E-01
RMM:   2    -0.230744282499E+04    0.23840E-02   -0.10995E-02  3974   0.419E-02    0.210E-01
RMM:   3    -0.230744238813E+04    0.43687E-03   -0.11304E-03  4348   0.152E-02    0.109E-01
RMM:   4    -0.230744228972E+04    0.98406E-04   -0.28145E-04  3382   0.838E-03    0.361E-02
RMM:   5    -0.230744228944E+04    0.28576E-06   -0.53342E-05  2955   0.526E-03
  16 F= -.23274934E+04 E0= -.23274926E+04  d E =-.165253E-02  mag=     2.9831
       N       E                     dE             d eps       ncg     rms          rms(c)
DAV:   1    -0.230746787093E+04   -0.25581E-01   -0.12373E+00  4600   0.516E-01    0.449E-01
RMM:   2    -0.230746590308E+04    0.19679E-02   -0.11978E-02  3971   0.464E-02    0.249E-01
RMM:   3    -0.230746547896E+04    0.42411E-03   -0.14342E-03  4483   0.165E-02    0.123E-01
RMM:   4    -0.230746541132E+04    0.67641E-04   -0.34720E-04  3519   0.943E-03    0.407E-02
RMM:   5    -0.230746541792E+04   -0.65965E-05   -0.57767E-05  2950   0.536E-03
  17 F= -.23275159E+04 E0= -.23275152E+04  d E =-.150328E-02  mag=     2.9838
       N       E                     dE             d eps       ncg     rms          rms(c)
DAV:   1    -0.230745015528E+04    0.15256E-01   -0.61277E-01  4400   0.355E-01    0.234E-01
RMM:   2    -0.230745028753E+04   -0.13224E-03   -0.30634E-03  3667   0.241E-02    0.140E-01
RMM:   3    -0.230745022993E+04    0.57598E-04   -0.54375E-04  3878   0.962E-03    0.325E-02
RMM:   4    -0.230745023462E+04   -0.46929E-05   -0.53101E-05  2885   0.570E-03
  18 F= -.23275013E+04 E0= -.23275004E+04  d E =-.170607E-02  mag=     2.9828
       N       E                     dE             d eps       ncg     rms          rms(c)
DAV:   1    -0.230745838385E+04   -0.81539E-02   -0.12539E+00  4560   0.503E-01    0.420E-01
RMM:   2    -0.230745694561E+04    0.14382E-02   -0.12665E-02  3890   0.456E-02    0.233E-01
RMM:   3    -0.230745647815E+04    0.46745E-03   -0.16381E-03  4334   0.196E-02    0.103E-01
RMM:   4    -0.230745643952E+04    0.38630E-04   -0.38358E-04  3684   0.901E-03    0.343E-02
RMM:   5    -0.230745643789E+04    0.16350E-05   -0.50616E-05  2934   0.571E-03
  19 F= -.23275071E+04 E0= -.23275063E+04  d E =-.150332E-02  mag=     2.9843
       N       E                     dE             d eps       ncg     rms          rms(c)
DAV:   1    -0.230749767131E+04   -0.41232E-01   -0.61621E-01  4760   0.401E-01    0.329E-01
RMM:   2    -0.230749622501E+04    0.14463E-02   -0.91238E-03  3896   0.401E-02    0.170E-01
RMM:   3    -0.230749596311E+04    0.26190E-03   -0.82513E-04  4383   0.137E-02    0.910E-02
RMM:   4    -0.230749592832E+04    0.34785E-04   -0.18788E-04  3355   0.635E-03    0.349E-02
RMM:   5    -0.230749592664E+04    0.16766E-05   -0.35614E-05  2924   0.468E-03
  20 F= -.23275463E+04 E0= -.23275456E+04  d E =-.152592E-02  mag=     2.9841
       N       E                     dE             d eps       ncg     rms          rms(c)
DAV:   1    -0.230741278666E+04    0.83142E-01   -0.11628E+00  4920   0.549E-01    0.440E-01
RMM:   2    -0.230741067268E+04    0.21140E-02   -0.14680E-02  3978   0.510E-02    0.236E-01
RMM:   3    -0.230741016403E+04    0.50865E-03   -0.12810E-03  4675   0.178E-02    0.120E-01
RMM:   4    -0.230741009272E+04    0.71307E-04   -0.34396E-04  3439   0.876E-03    0.387E-02
RMM:   5    -0.230741009450E+04   -0.17827E-05   -0.51713E-05  3015   0.634E-03
  21 F= -.23274614E+04 E0= -.23274606E+04  d E =-.163110E-02  mag=     2.9835
       N       E                     dE             d eps       ncg     rms          rms(c)
DAV:   1    -0.230748368754E+04   -0.73595E-01   -0.59003E-01  4960   0.381E-01    0.348E-01
RMM:   2    -0.230748201826E+04    0.16693E-02   -0.92471E-03  3935   0.420E-02    0.185E-01
RMM:   3    -0.230748166888E+04    0.34937E-03   -0.85708E-04  4444   0.144E-02    0.945E-02
RMM:   4    -0.230748160872E+04    0.60160E-04   -0.21932E-04  3328   0.714E-03    0.302E-02
RMM:   5    -0.230748160997E+04   -0.12502E-05   -0.33673E-05  2879   0.504E-03
  22 F= -.23275322E+04 E0= -.23275314E+04  d E =-.169222E-02  mag=     2.9828
       N       E                     dE             d eps       ncg     rms          rms(c)
DAV:   1    -0.230742992875E+04    0.51680E-01   -0.11470E+00  4840   0.531E-01    0.383E-01
RMM:   2    -0.230742880343E+04    0.11253E-02   -0.10483E-02  3944   0.441E-02    0.210E-01
RMM:   3    -0.230742849253E+04    0.31090E-03   -0.96281E-04  4393   0.156E-02    0.105E-01
RMM:   4    -0.230742847022E+04    0.22309E-04   -0.27846E-04  3391   0.803E-03    0.314E-02
RMM:   5    -0.230742847759E+04   -0.73640E-05   -0.40211E-05  2946   0.554E-03
  23 F= -.23274796E+04 E0= -.23274788E+04  d E =-.149584E-02  mag=     2.9839
       N       E                     dE             d eps       ncg     rms          rms(c)
DAV:   1    -0.230748262619E+04   -0.54156E-01   -0.59241E-01  4760   0.374E-01    0.306E-01
RMM:   2    -0.230748162385E+04    0.10023E-02   -0.70508E-03  3863   0.373E-02    0.165E-01
RMM:   3    -0.230748138330E+04    0.24055E-03   -0.78702E-04  4103   0.129E-02    0.803E-02
RMM:   4    -0.230748134911E+04    0.34198E-04   -0.19094E-04  3316   0.706E-03    0.252E-02
RMM:   5    -0.230748135285E+04   -0.37441E-05   -0.32353E-05  2842   0.464E-03
  24 F= -.23275321E+04 E0= -.23275313E+04  d E =-.174690E-02  mag=     2.9825
       N       E                     dE             d eps       ncg     rms          rms(c)
DAV:   1    -0.230742928592E+04    0.52063E-01   -0.11832E+00  4600   0.531E-01    0.352E-01
RMM:   2    -0.230742854080E+04    0.74513E-03   -0.91998E-03  3826   0.425E-02    0.197E-01
RMM:   3    -0.230742827888E+04    0.26192E-03   -0.11488E-03  4203   0.160E-02    0.857E-02
RMM:   4    -0.230742826558E+04    0.13300E-04   -0.29469E-04  3496   0.862E-03    0.248E-02
RMM:   5    -0.230742826972E+04   -0.41421E-05   -0.40720E-05  2907   0.531E-03
  25 F= -.23274791E+04 E0= -.23274784E+04  d E =-.142628E-02  mag=     2.9843
       N       E                     dE             d eps       ncg     rms          rms(c)
DAV:   1    -0.230743023394E+04   -0.19684E-02   -0.56129E-01  4560   0.373E-01    0.241E-01
RMM:   2    -0.230743014069E+04    0.93251E-04   -0.61742E-03  3904   0.336E-02    0.134E-01
RMM:   3    -0.230742999174E+04    0.14895E-03   -0.45779E-04  3878   0.139E-02    0.690E-02
RMM:   4    -0.230742998411E+04    0.76253E-05   -0.17237E-04  3368   0.626E-03    0.253E-02
RMM:   5    -0.230742998643E+04   -0.23202E-05   -0.20960E-05  2809   0.470E-03
  26 F= -.23274810E+04 E0= -.23274801E+04  d E =-.179416E-02  mag=     2.9822
       N       E                     dE             d eps       ncg     rms          rms(c)
DAV:   1    -0.230748166296E+04   -0.51679E-01   -0.10821E+00  4560   0.458E-01    0.316E-01
RMM:   2    -0.230748177123E+04   -0.10827E-03   -0.10433E-02  4104   0.392E-02    0.186E-01
RMM:   3    -0.230748146775E+04    0.30349E-03   -0.98228E-04  3991   0.192E-02    0.104E-01
RMM:   4    -0.230748146826E+04   -0.51413E-06   -0.33366E-04  3566   0.806E-03    0.501E-02
RMM:   5    -0.230748146976E+04   -0.14966E-05   -0.55614E-05  2981   0.613E-03
  27 F= -.23275321E+04 E0= -.23275314E+04  d E =-.142850E-02  mag=     2.9843
       N       E                     dE             d eps       ncg     rms          rms(c)
DAV:   1    -0.230744003843E+04    0.41430E-01   -0.53288E-01  4800   0.325E-01    0.268E-01
RMM:   2    -0.230743999140E+04    0.47027E-04   -0.89943E-03  3995   0.344E-02    0.150E-01
RMM:   3    -0.230743964000E+04    0.35140E-03   -0.72703E-04  3898   0.157E-02    0.759E-02
RMM:   4    -0.230743961707E+04    0.22935E-04   -0.19036E-04  3440   0.629E-03    0.319E-02
RMM:   5    -0.230743961425E+04    0.28172E-05   -0.26232E-05  2837   0.458E-03
  28 F= -.23274908E+04 E0= -.23274900E+04  d E =-.156674E-02  mag=     2.9834
       N       E                     dE             d eps       ncg     rms          rms(c)
DAV:   1    -0.230747250414E+04   -0.32887E-01   -0.10887E+00  4480   0.453E-01    0.300E-01
RMM:   2    -0.230747292900E+04   -0.42486E-03   -0.92212E-03  4038   0.375E-02    0.183E-01
RMM:   3    -0.230747269565E+04    0.23335E-03   -0.89702E-04  4064   0.167E-02    0.101E-01
RMM:   4    -0.230747271014E+04   -0.14490E-04   -0.32440E-04  3539   0.767E-03    0.478E-02
RMM:   5    -0.230747270791E+04    0.22317E-05   -0.46782E-05  2949   0.559E-03
  29 F= -.23275232E+04 E0= -.23275224E+04  d E =-.159876E-02  mag=     2.9840
       N       E                     dE             d eps       ncg     rms          rms(c)
DAV:   1    -0.230742658877E+04    0.46121E-01   -0.53737E-01  4560   0.313E-01    0.395E-01
RMM:   2    -0.230742571771E+04    0.87105E-03   -0.91929E-03  4434   0.373E-02    0.249E-01
RMM:   3    -0.230742443374E+04    0.12840E-02   -0.19794E-03  4571   0.257E-02    0.196E-01
RMM:   4    -0.230742393502E+04    0.49872E-03   -0.20292E-03  4949   0.219E-02    0.188E-01
RMM:   5    -0.230742367213E+04    0.26289E-03   -0.58389E-04  4398   0.129E-02    0.206E-01
RMM:   6    -0.230742510597E+04   -0.14338E-02   -0.62812E-03  4871   0.355E-02    0.101E-01
RMM:   7    -0.230742518466E+04   -0.78688E-04   -0.25560E-03  4667   0.261E-02    0.199E-01
RMM:   8    -0.230742455135E+04    0.63330E-03   -0.31448E-03  5273   0.262E-02    0.404E-01
RMM:   9    -0.230742520311E+04   -0.65176E-03   -0.13363E-03  4967   0.200E-02    0.206E-01
RMM:  10    -0.230742518781E+04    0.15305E-04   -0.15652E-04  3800   0.840E-03    0.172E-01
RMM:  11    -0.230742539418E+04   -0.20637E-03   -0.40044E-04  4284   0.978E-03    0.114E-01
RMM:  12    -0.230742550158E+04   -0.10740E-03   -0.27460E-04  3934   0.944E-03    0.744E-02
RMM:  13    -0.230742555234E+04   -0.50766E-04   -0.13614E-04  3437   0.654E-03    0.578E-02
RMM:  14    -0.230742560518E+04   -0.52840E-04   -0.12881E-04  3572   0.653E-03    0.432E-02
RMM:  15    -0.230742565306E+04   -0.47875E-04   -0.12825E-04  3554   0.678E-03    0.321E-02
RMM:  16    -0.230742567834E+04   -0.25281E-04   -0.80670E-05  3182   0.562E-03    0.257E-02
RMM:  17    -0.230742570764E+04   -0.29302E-04   -0.11333E-04  3610   0.616E-03    0.232E-02
RMM:  18    -0.230742574006E+04   -0.32418E-04   -0.15013E-04  3744   0.680E-03    0.259E-02
RMM:  19    -0.230742576881E+04   -0.28751E-04   -0.13707E-04  3451   0.648E-03    0.339E-02
RMM:  20    -0.230742578039E+04   -0.11580E-04   -0.39006E-05  2980   0.456E-03    0.386E-02
RMM:  21    -0.230742577394E+04    0.64482E-05   -0.47425E-06  2760   0.265E-03
  30 F= -.23274771E+04 E0= -.23274705E+04  d E =-.131096E-01  mag=     2.8005
       N       E                     dE             d eps       ncg     rms          rms(c)
DAV:   1    -0.230749124673E+04   -0.65466E-01   -0.10938E+00  4560   0.447E-01    0.738E-01
RMM:   2    -0.230749139541E+04   -0.14868E-03   -0.21748E-02  4887   0.603E-02    0.327E-01
RMM:   3    -0.230749080905E+04    0.58635E-03   -0.26887E-03  4471   0.319E-02    0.181E-01
RMM:   4    -0.230748980290E+04    0.10062E-02   -0.17929E-03  4425   0.213E-02    0.982E-02
RMM:   5    -0.230748964170E+04    0.16120E-03   -0.34289E-04  3909   0.124E-02    0.661E-02
RMM:   6    -0.230748983971E+04   -0.19801E-03   -0.16253E-04  3787   0.743E-03    0.374E-02
RMM:   7    -0.230749003923E+04   -0.19952E-03   -0.37698E-05  3123   0.536E-03    0.273E-02
RMM:   8    -0.230749023090E+04   -0.19168E-03   -0.23987E-05  3035   0.381E-03    0.190E-02
RMM:   9    -0.230749046713E+04   -0.23623E-03   -0.34598E-05  3198   0.410E-03    0.113E-02
RMM:  10    -0.230749061115E+04   -0.14402E-03   -0.22561E-05  3054   0.385E-03    0.692E-03
RMM:  11    -0.230749067209E+04   -0.60942E-04   -0.94728E-06  2818   0.309E-03    0.472E-03
RMM:  12    -0.230749070773E+04   -0.35637E-04   -0.60830E-06  2770   0.251E-03    0.268E-03
RMM:  13    -0.230749072407E+04   -0.16343E-04   -0.42033E-06  2725   0.226E-03    0.133E-03
RMM:  14    -0.230749072616E+04   -0.20913E-05   -0.17566E-06  2558   0.174E-03
  31 F= -.23275411E+04 E0= -.23275410E+04  d E =-.275738E-03  mag=     2.9971
