       N       E                     dE             d eps       ncg     rms          rms(c)
DAV:   1     0.128718965813E+05    0.12872E+05   -0.83635E+05  4512   0.144E+03
DAV:   2    -0.106426370719E+04   -0.13936E+05   -0.13326E+05  5072   0.330E+02
DAV:   3    -0.248073826216E+04   -0.14165E+04   -0.14014E+04  5408   0.112E+02
DAV:   4    -0.252476223986E+04   -0.44024E+02   -0.43763E+02  6736   0.291E+01
DAV:   5    -0.252560154110E+04   -0.83930E+00   -0.83801E+00  6336   0.348E+00    0.170E+02
RMM:   6    -0.148686214800E+04    0.10387E+04   -0.19467E+03  4424   0.385E+01    0.730E+01
RMM:   7    -0.166250501024E+04   -0.17564E+03   -0.29231E+02  5027   0.141E+01    0.540E+01
RMM:   8    -0.170414674618E+04   -0.41642E+02   -0.82342E+01  5288   0.761E+00    0.443E+01
RMM:   9    -0.178119252371E+04   -0.77046E+02   -0.74955E+01  4952   0.822E+00    0.362E+01
RMM:  10    -0.188237989292E+04   -0.10119E+03   -0.58110E+01  5311   0.751E+00    0.313E+01
RMM:  11    -0.197187867750E+04   -0.89499E+02   -0.39021E+01  5251   0.561E+00    0.175E+01
RMM:  12    -0.207191002700E+04   -0.10003E+03   -0.45178E+01  4697   0.522E+00    0.136E+01
RMM:  13    -0.219993368395E+04   -0.12802E+03   -0.90750E+01  4486   0.699E+00    0.960E+00
RMM:  14    -0.229139324596E+04   -0.91460E+02   -0.89297E+01  4621   0.646E+00    0.552E+00
RMM:  15    -0.230771423354E+04   -0.16321E+02   -0.18529E+01  4719   0.388E+00    0.481E+00
RMM:  16    -0.231280629464E+04   -0.50921E+01   -0.67216E+00  4996   0.156E+00    0.404E+00
RMM:  17    -0.231420969024E+04   -0.14034E+01   -0.83739E-01  4789   0.893E-01    0.326E+00
RMM:  18    -0.231722710135E+04   -0.30174E+01   -0.15585E+00  4435   0.843E-01    0.186E+00
RMM:  19    -0.231855879309E+04   -0.13317E+01   -0.60945E-01  4589   0.593E-01    0.111E+00
RMM:  20    -0.231895598808E+04   -0.39719E+00   -0.28186E-01  4733   0.316E-01    0.715E-01
RMM:  21    -0.231906260110E+04   -0.10661E+00   -0.88839E-02  4660   0.201E-01    0.289E-01
RMM:  22    -0.231910719376E+04   -0.44593E-01   -0.33293E-02  4622   0.113E-01    0.204E-01
RMM:  23    -0.231912789679E+04   -0.20703E-01   -0.10358E-02  4557   0.806E-02    0.116E-01
RMM:  24    -0.231914338951E+04   -0.15493E-01   -0.64877E-03  4442   0.591E-02    0.843E-02
RMM:  25    -0.231915132170E+04   -0.79322E-02   -0.29796E-03  4528   0.492E-02    0.531E-02
RMM:  26    -0.231915685986E+04   -0.55382E-02   -0.21019E-03  4521   0.339E-02    0.298E-02
RMM:  27    -0.231915908579E+04   -0.22259E-02   -0.74997E-04  4193   0.264E-02    0.168E-02
RMM:  28    -0.231916006806E+04   -0.98227E-03   -0.35256E-04  3963   0.138E-02    0.912E-03
RMM:  29    -0.231916040246E+04   -0.33440E-03   -0.11604E-04  3650   0.123E-02    0.555E-03
RMM:  30    -0.231916053093E+04   -0.12847E-03   -0.47092E-05  3479   0.579E-03    0.330E-03
RMM:  31    -0.231916059202E+04   -0.61084E-04   -0.16859E-05  3008   0.501E-03    0.193E-03
RMM:  32    -0.231916061784E+04   -0.25827E-04   -0.94239E-06  2861   0.308E-03    0.116E-03
RMM:  33    -0.231916062624E+04   -0.83997E-05   -0.44753E-06  2493   0.256E-03
   1 F= -.23400319E+04 E0= -.23400319E+04  d E =-.234003E+04  mag=     3.0001
       N       E                     dE             d eps       ncg     rms          rms(c)
DAV:   1    -0.231676789951E+04    0.23927E+01   -0.12844E+02  4720   0.928E+00    0.447E+00
RMM:   2    -0.232016717133E+04   -0.33993E+01   -0.37073E+01  6129   0.251E+00    0.368E+00
RMM:   3    -0.232056766676E+04   -0.40050E+00   -0.46213E+00  5941   0.102E+00    0.468E+00
RMM:   4    -0.232032129384E+04    0.24637E+00   -0.29219E-01  6183   0.222E-01    0.154E+00
RMM:   5    -0.232029228929E+04    0.29005E-01   -0.80619E-02  5795   0.118E-01    0.104E+00
RMM:   6    -0.232028324346E+04    0.90458E-02   -0.86290E-02  5231   0.126E-01    0.119E+00
RMM:   7    -0.232026926611E+04    0.13977E-01   -0.29948E-02  5747   0.937E-02    0.423E-01
RMM:   8    -0.232026634090E+04    0.29252E-02   -0.44453E-03  5445   0.375E-02    0.179E-01
RMM:   9    -0.232026543928E+04    0.90162E-03   -0.17219E-03  5072   0.296E-02    0.940E-02
RMM:  10    -0.232026506179E+04    0.37749E-03   -0.93314E-04  4892   0.167E-02    0.381E-02
RMM:  11    -0.232026495291E+04    0.10888E-03   -0.20163E-04  4258   0.122E-02    0.219E-02
RMM:  12    -0.232026490854E+04    0.44372E-04   -0.10230E-04  4163   0.763E-03    0.124E-02
RMM:  13    -0.232026490388E+04    0.46513E-05   -0.38290E-05  3400   0.692E-03
   2 F= -.23411267E+04 E0= -.23411267E+04  d E =-.109476E+01  mag=     3.0006
       N       E                     dE             d eps       ncg     rms          rms(c)
DAV:   1    -0.232026473815E+04    0.17039E-03   -0.75155E-03  5114   0.689E-02    0.333E-02
RMM:   2    -0.232026490964E+04   -0.17149E-03   -0.17538E-03  5701   0.187E-02    0.360E-02
RMM:   3    -0.232026491841E+04   -0.87688E-05   -0.21710E-04  2885   0.853E-03    0.251E-02
RMM:   4    -0.232026491441E+04    0.40031E-05   -0.17824E-05  2900   0.244E-03
   3 F= -.23411267E+04 E0= -.23411267E+04  d E =-.109484E+01  mag=     3.0004
       N       E                     dE             d eps       ncg     rms          rms(c)
DAV:   1    -0.232004216572E+04    0.22275E+00   -0.29823E+01  4592   0.504E+00    0.217E+00
RMM:   2    -0.232060789487E+04   -0.56573E+00   -0.58900E+00  6040   0.117E+00    0.219E+00
RMM:   3    -0.232062520742E+04   -0.17313E-01   -0.71826E-01  5763   0.507E-01    0.180E+00
RMM:   4    -0.232059809416E+04    0.27113E-01   -0.70295E-02  5683   0.118E-01    0.760E-01
RMM:   5    -0.232059557598E+04    0.25182E-02   -0.21523E-02  5753   0.707E-02    0.709E-01
RMM:   6    -0.232058840345E+04    0.71725E-02   -0.16674E-02  5263   0.660E-02    0.218E-01
RMM:   7    -0.232058785893E+04    0.54452E-03   -0.21880E-03  4893   0.387E-02    0.732E-02
RMM:   8    -0.232058773505E+04    0.12388E-03   -0.35188E-04  4369   0.125E-02    0.389E-02
RMM:   9    -0.232058766530E+04    0.69758E-04   -0.12772E-04  3854   0.105E-02    0.177E-02
RMM:  10    -0.232058764209E+04    0.23210E-04   -0.52254E-05  3625   0.606E-03    0.108E-02
RMM:  11    -0.232058763389E+04    0.81990E-05   -0.16873E-05  2937   0.560E-03
   4 F= -.23414511E+04 E0= -.23414511E+04  d E =-.324345E+00  mag=     3.0000
       N       E                     dE             d eps       ncg     rms          rms(c)
DAV:   1    -0.232057745243E+04    0.10190E-01   -0.10276E+00  4928   0.932E-01    0.395E-01
RMM:   2    -0.232059575976E+04   -0.18307E-01   -0.19224E-01  6073   0.211E-01    0.384E-01
RMM:   3    -0.232059676386E+04   -0.10041E-02   -0.22742E-02  5693   0.901E-02    0.341E-01
RMM:   4    -0.232059584094E+04    0.92293E-03   -0.22028E-03  4904   0.219E-02    0.124E-01
RMM:   5    -0.232059584616E+04   -0.52244E-05   -0.77123E-04  4610   0.149E-02    0.141E-01
RMM:   6    -0.232059557900E+04    0.26716E-03   -0.50944E-04  4905   0.124E-02    0.355E-02
RMM:   7    -0.232059556369E+04    0.15309E-04   -0.65862E-05  3021   0.773E-03    0.170E-02
RMM:   8    -0.232059555988E+04    0.38083E-05   -0.13823E-05  2893   0.384E-03
   5 F= -.23414593E+04 E0= -.23414593E+04  d E =-.332598E+00  mag=     3.0000
       N       E                     dE             d eps       ncg     rms          rms(c)
DAV:   1    -0.232046117506E+04    0.13439E+00   -0.12977E+01  4528   0.305E+00    0.113E+00
RMM:   2    -0.232071431937E+04   -0.25314E+00   -0.27577E+00  6418   0.768E-01    0.779E-01
RMM:   3    -0.232073525602E+04   -0.20937E-01   -0.30943E-01  5950   0.292E-01    0.667E-01
RMM:   4    -0.232073359504E+04    0.16610E-02   -0.26607E-02  5776   0.594E-02    0.492E-01
RMM:   5    -0.232073178150E+04    0.18135E-02   -0.63165E-03  5475   0.349E-02    0.340E-01
RMM:   6    -0.232073081020E+04    0.97129E-03   -0.42953E-03  5807   0.304E-02    0.211E-01
RMM:   7    -0.232073042751E+04    0.38269E-03   -0.13274E-03  5076   0.184E-02    0.119E-01
RMM:   8    -0.232073025398E+04    0.17353E-03   -0.29027E-04  3767   0.984E-03    0.418E-02
RMM:   9    -0.232073022005E+04    0.33926E-04   -0.71874E-05  2987   0.621E-03    0.239E-02
RMM:  10    -0.232073020961E+04    0.10442E-04   -0.28151E-05  2877   0.484E-03    0.821E-03
RMM:  11    -0.232073020749E+04    0.21150E-05   -0.12801E-05  2899   0.365E-03
   6 F= -.23415971E+04 E0= -.23415971E+04  d E =-.137724E+00  mag=     3.0000
       N       E                     dE             d eps       ncg     rms          rms(c)
DAV:   1    -0.232070316170E+04    0.27048E-01   -0.18533E+00  4592   0.116E+00    0.423E-01
RMM:   2    -0.232073841597E+04   -0.35254E-01   -0.38700E-01  6404   0.288E-01    0.262E-01
RMM:   3    -0.232074138671E+04   -0.29707E-02   -0.41612E-02  5783   0.106E-01    0.215E-01
RMM:   4    -0.232074142502E+04   -0.38315E-04   -0.38394E-03  4586   0.225E-02    0.199E-01
RMM:   5    -0.232074103402E+04    0.39100E-03   -0.87239E-04  4579   0.143E-02    0.981E-02
RMM:   6    -0.232074093635E+04    0.97663E-04   -0.40791E-04  4531   0.115E-02    0.371E-02
RMM:   7    -0.232074094085E+04   -0.44972E-05   -0.63368E-05  2940   0.658E-03
   7 F= -.23416089E+04 E0= -.23416089E+04  d E =-.149532E+00  mag=     3.0000
       N       E                     dE             d eps       ncg     rms          rms(c)
DAV:   1    -0.232055774865E+04    0.18319E+00   -0.11411E+01  4480   0.296E+00    0.111E+00
RMM:   2    -0.232080115554E+04   -0.24341E+00   -0.26243E+00  6363   0.732E-01    0.712E-01
RMM:   3    -0.232083129858E+04   -0.30143E-01   -0.32406E-01  5941   0.296E-01    0.945E-01
RMM:   4    -0.232082602233E+04    0.52762E-02   -0.27428E-02  6079   0.602E-02    0.349E-01
RMM:   5    -0.232082450008E+04    0.15223E-02   -0.33485E-03  4886   0.281E-02    0.182E-01
RMM:   6    -0.232082436500E+04    0.13508E-03   -0.15422E-03  5073   0.247E-02    0.112E-01
RMM:   7    -0.232082432658E+04    0.38420E-04   -0.51513E-04  4698   0.132E-02    0.800E-02
RMM:   8    -0.232082424242E+04    0.84163E-04   -0.77909E-05  2942   0.630E-03    0.197E-02
RMM:   9    -0.232082423228E+04    0.10136E-04   -0.32750E-05  2938   0.411E-03    0.880E-03
RMM:  10    -0.232082423140E+04    0.87912E-06   -0.88921E-06  2896   0.319E-03
   8 F= -.23416939E+04 E0= -.23416939E+04  d E =-.850480E-01  mag=     3.0000
       N       E                     dE             d eps       ncg     rms          rms(c)
DAV:   1    -0.232068097244E+04    0.14326E+00   -0.69731E+00  4480   0.232E+00    0.867E-01
RMM:   2    -0.232082972154E+04   -0.14875E+00   -0.16011E+00  6345   0.576E-01    0.583E-01
RMM:   3    -0.232084785419E+04   -0.18133E-01   -0.19732E-01  5927   0.232E-01    0.738E-01
RMM:   4    -0.232084444598E+04    0.34082E-02   -0.16592E-02  5918   0.475E-02    0.265E-01
RMM:   5    -0.232084350610E+04    0.93988E-03   -0.23381E-03  4949   0.238E-02    0.132E-01
RMM:   6    -0.232084341043E+04    0.95667E-04   -0.77931E-04  4726   0.191E-02    0.523E-02
RMM:   7    -0.232084341121E+04   -0.77781E-06   -0.11647E-04  3579   0.882E-03    0.317E-02
RMM:   8    -0.232084340037E+04    0.10838E-04   -0.34695E-05  2920   0.518E-03    0.194E-02
RMM:   9    -0.232084339311E+04    0.72675E-05   -0.17347E-05  2939   0.311E-03
   9 F= -.23417142E+04 E0= -.23417142E+04  d E =-.105326E+00  mag=     3.0000
       N       E                     dE             d eps       ncg     rms          rms(c)
DAV:   1    -0.232074973517E+04    0.93665E-01   -0.60230E+00  4496   0.212E+00    0.805E-01
RMM:   2    -0.232088888765E+04   -0.13915E+00   -0.15006E+00  6447   0.528E-01    0.566E-01
RMM:   3    -0.232090578501E+04   -0.16897E-01   -0.17720E-01  6004   0.208E-01    0.718E-01
RMM:   4    -0.232090270038E+04    0.30846E-02   -0.16658E-02  5701   0.441E-02    0.253E-01
RMM:   5    -0.232090201286E+04    0.68752E-03   -0.18690E-03  4836   0.204E-02    0.154E-01
RMM:   6    -0.232090207346E+04   -0.60601E-04   -0.13008E-03  5060   0.194E-02    0.142E-01
RMM:   7    -0.232090181470E+04    0.25876E-03   -0.33637E-04  4056   0.107E-02    0.312E-02
RMM:   8    -0.232090180386E+04    0.10841E-04   -0.38484E-05  2924   0.521E-03    0.136E-02
RMM:   9    -0.232090179897E+04    0.48895E-05   -0.15588E-05  2929   0.307E-03
  10 F= -.23417727E+04 E0= -.23417727E+04  d E =-.585213E-01  mag=     3.0000
       N       E                     dE             d eps       ncg     rms          rms(c)
DAV:   1    -0.232041445208E+04    0.48735E+00   -0.20598E+01  4472   0.391E+00    0.150E+00
RMM:   2    -0.232089623122E+04   -0.48178E+00   -0.52166E+00  6472   0.977E-01    0.926E-01
RMM:   3    -0.232095565172E+04   -0.59420E-01   -0.63478E-01  5965   0.388E-01    0.119E+00
RMM:   4    -0.232094790007E+04    0.77516E-02   -0.56841E-02  6158   0.797E-02    0.495E-01
RMM:   5    -0.232094590282E+04    0.19972E-02   -0.55108E-03  5257   0.332E-02    0.339E-01
RMM:   6    -0.232094579826E+04    0.10457E-03   -0.55881E-03  5830   0.353E-02    0.302E-01
RMM:   7    -0.232094466774E+04    0.11305E-02   -0.17537E-03  5533   0.214E-02    0.723E-02
RMM:   8    -0.232094462047E+04    0.47264E-04   -0.20041E-04  3317   0.841E-03    0.360E-02
RMM:   9    -0.232094458902E+04    0.31452E-04   -0.68693E-05  2991   0.583E-03    0.164E-02
RMM:  10    -0.232094458708E+04    0.19342E-05   -0.18334E-05  2918   0.408E-03
  11 F= -.23418153E+04 E0= -.23418153E+04  d E =-.101070E+00  mag=     3.0000
       N       E                     dE             d eps       ncg     rms          rms(c)
DAV:   1    -0.232081286737E+04    0.13172E+00   -0.74801E+00  4496   0.232E+00    0.888E-01
RMM:   2    -0.232097861746E+04   -0.16575E+00   -0.18096E+00  6445   0.569E-01    0.524E-01
RMM:   3    -0.232099534916E+04   -0.16732E-01   -0.21040E-01  5821   0.226E-01    0.422E-01
RMM:   4    -0.232099569139E+04   -0.34224E-03   -0.18714E-02  5518   0.439E-02    0.336E-01
RMM:   5    -0.232099464066E+04    0.10507E-02   -0.22932E-03  5214   0.215E-02    0.197E-01
RMM:   6    -0.232099431892E+04    0.32174E-03   -0.20127E-03  5284   0.219E-02    0.101E-01
RMM:   7    -0.232099426558E+04    0.53344E-04   -0.33480E-04  3352   0.123E-02    0.636E-02
RMM:   8    -0.232099420184E+04    0.63733E-04   -0.70874E-05  2942   0.538E-03    0.254E-02
RMM:   9    -0.232099418932E+04    0.12528E-04   -0.38591E-05  2934   0.382E-03    0.988E-03
RMM:  10    -0.232099418918E+04    0.13401E-06   -0.88438E-06  2846   0.275E-03
  12 F= -.23418639E+04 E0= -.23418639E+04  d E =-.486580E-01  mag=     3.0000
       N       E                     dE             d eps       ncg     rms          rms(c)
DAV:   1    -0.232086474837E+04    0.12944E+00   -0.59971E+00  4512   0.207E+00    0.793E-01
RMM:   2    -0.232099734427E+04   -0.13260E+00   -0.14451E+00  6435   0.507E-01    0.471E-01
RMM:   3    -0.232101053995E+04   -0.13196E-01   -0.16538E-01  5804   0.203E-01    0.391E-01
RMM:   4    -0.232101072133E+04   -0.18138E-03   -0.14945E-02  5401   0.396E-02    0.304E-01
RMM:   5    -0.232100984672E+04    0.87461E-03   -0.18048E-03  5117   0.194E-02    0.175E-01
RMM:   6    -0.232100966613E+04    0.18059E-03   -0.16827E-03  5235   0.202E-02    0.118E-01
RMM:   7    -0.232100953625E+04    0.12988E-03   -0.34633E-04  3332   0.116E-02    0.521E-02
RMM:   8    -0.232100949370E+04    0.42545E-04   -0.53182E-05  2946   0.504E-03    0.215E-02
RMM:   9    -0.232100948429E+04    0.94134E-05   -0.29344E-05  2936   0.352E-03
  13 F= -.23418782E+04 E0= -.23418782E+04  d E =-.629695E-01  mag=     3.0000
       N       E                     dE             d eps       ncg     rms          rms(c)
DAV:   1    -0.232097177512E+04    0.37719E-01   -0.31228E+00  4528   0.156E+00    0.591E-01
RMM:   2    -0.232103311179E+04   -0.61337E-01   -0.64340E-01  6179   0.350E-01    0.606E-01
RMM:   3    -0.232103753384E+04   -0.44221E-02   -0.77857E-02  5914   0.150E-01    0.447E-01
RMM:   4    -0.232103613325E+04    0.14006E-02   -0.74754E-03  5360   0.330E-02    0.182E-01
RMM:   5    -0.232103568111E+04    0.45214E-03   -0.12144E-03  5084   0.196E-02    0.119E-01
RMM:   6    -0.232103565275E+04    0.28360E-04   -0.90869E-04  5101   0.163E-02    0.118E-01
RMM:   7    -0.232103547658E+04    0.17617E-03   -0.28387E-04  3976   0.109E-02    0.363E-02
RMM:   8    -0.232103545433E+04    0.22253E-04   -0.44478E-05  2956   0.519E-03    0.172E-02
RMM:   9    -0.232103544583E+04    0.85022E-05   -0.25255E-05  2878   0.418E-03
  14 F= -.23419038E+04 E0= -.23419038E+04  d E =-.255843E-01  mag=     3.0000
       N       E                     dE             d eps       ncg     rms          rms(c)
DAV:   1    -0.232101459882E+04    0.20856E-01   -0.12659E+00  4592   0.991E-01    0.377E-01
RMM:   2    -0.232103951693E+04   -0.24918E-01   -0.26064E-01  6147   0.223E-01    0.399E-01
RMM:   3    -0.232104120931E+04   -0.16924E-02   -0.31335E-02  5816   0.952E-02    0.288E-01
RMM:   4    -0.232104064060E+04    0.56871E-03   -0.30848E-03  4839   0.212E-02    0.115E-01
RMM:   5    -0.232104043047E+04    0.21012E-03   -0.49923E-04  4439   0.131E-02    0.709E-02
RMM:   6    -0.232104043057E+04   -0.93234E-07   -0.34937E-04  4346   0.112E-02    0.770E-02
RMM:   7    -0.232104035612E+04    0.74449E-04   -0.11192E-04  3070   0.799E-03    0.240E-02
RMM:   8    -0.232104034687E+04    0.92436E-05   -0.20986E-05  2914   0.443E-03
  15 F= -.23419084E+04 E0= -.23419084E+04  d E =-.301973E-01  mag=     3.0000
       N       E                     dE             d eps       ncg     rms          rms(c)
DAV:   1    -0.232099673163E+04    0.43624E-01   -0.31200E+00  4480   0.162E+00    0.562E-01
RMM:   2    -0.232105923301E+04   -0.62501E-01   -0.63727E-01  6327   0.372E-01    0.638E-01
RMM:   3    -0.232106232408E+04   -0.30911E-02   -0.71955E-02  6015   0.146E-01    0.402E-01
RMM:   4    -0.232106133809E+04    0.98599E-03   -0.67650E-03  5156   0.310E-02    0.171E-01
RMM:   5    -0.232106093971E+04    0.39837E-03   -0.10540E-03  5030   0.181E-02    0.113E-01
RMM:   6    -0.232106094881E+04   -0.90962E-05   -0.70704E-04  4787   0.146E-02    0.109E-01
RMM:   7    -0.232106081134E+04    0.13747E-03   -0.21977E-04  3759   0.954E-03    0.332E-02
RMM:   8    -0.232106080303E+04    0.83129E-05   -0.34386E-05  2932   0.518E-03
  16 F= -.23419293E+04 E0= -.23419293E+04  d E =-.208886E-01  mag=     3.0000
       N       E                     dE             d eps       ncg     rms          rms(c)
DAV:   1    -0.232101246433E+04    0.48347E-01   -0.26305E+00  4496   0.149E+00    0.516E-01
RMM:   2    -0.232106473886E+04   -0.52275E-01   -0.53427E-01  6320   0.340E-01    0.577E-01
RMM:   3    -0.232106739050E+04   -0.26516E-02   -0.59915E-02  5975   0.134E-01    0.375E-01
RMM:   4    -0.232106655282E+04    0.83768E-03   -0.57870E-03  5084   0.288E-02    0.157E-01
RMM:   5    -0.232106623370E+04    0.31912E-03   -0.88494E-04  4910   0.166E-02    0.108E-01
RMM:   6    -0.232106621386E+04    0.19835E-04   -0.60170E-04  4666   0.134E-02    0.981E-02
RMM:   7    -0.232106610641E+04    0.10745E-03   -0.18627E-04  3646   0.911E-03    0.318E-02
RMM:   8    -0.232106609871E+04    0.77036E-05   -0.31030E-05  2926   0.523E-03
  17 F= -.23419349E+04 E0= -.23419349E+04  d E =-.265026E-01  mag=     3.0000
       N       E                     dE             d eps       ncg     rms          rms(c)
DAV:   1    -0.232101266263E+04    0.53444E-01   -0.37385E+00  4472   0.181E+00    0.556E-01
RMM:   2    -0.232107607904E+04   -0.63416E-01   -0.68558E-01  6271   0.389E-01    0.324E-01
RMM:   3    -0.232108166098E+04   -0.55819E-02   -0.74044E-02  5854   0.154E-01    0.236E-01
RMM:   4    -0.232108194980E+04   -0.28882E-03   -0.72113E-03  5328   0.312E-02    0.228E-01
RMM:   5    -0.232108152047E+04    0.42933E-03   -0.10333E-03  4769   0.158E-02    0.171E-01
RMM:   6    -0.232108136579E+04    0.15468E-03   -0.94508E-04  4703   0.161E-02    0.102E-01
RMM:   7    -0.232108127473E+04    0.91057E-04   -0.25656E-04  4214   0.103E-02    0.427E-02
RMM:   8    -0.232108125570E+04    0.19031E-04   -0.27092E-05  2933   0.508E-03    0.139E-02
RMM:   9    -0.232108125125E+04    0.44517E-05   -0.15345E-05  2913   0.310E-03
  18 F= -.23419502E+04 E0= -.23419502E+04  d E =-.152434E-01  mag=     3.0000
       N       E                     dE             d eps       ncg     rms          rms(c)
DAV:   1    -0.232106931618E+04    0.11940E-01   -0.73904E-01  4560   0.803E-01    0.247E-01
RMM:   2    -0.232108181222E+04   -0.12496E-01   -0.13527E-01  6232   0.172E-01    0.143E-01
RMM:   3    -0.232108293350E+04   -0.11213E-02   -0.14776E-02  5583   0.692E-02    0.103E-01
RMM:   4    -0.232108297326E+04   -0.39765E-04   -0.14134E-03  3451   0.141E-02    0.909E-02
RMM:   5    -0.232108289322E+04    0.80048E-04   -0.22328E-04  3334   0.891E-03    0.718E-02
RMM:   6    -0.232108287727E+04    0.15944E-04   -0.19221E-04  3270   0.824E-03    0.528E-02
RMM:   7    -0.232108285478E+04    0.22489E-04   -0.50849E-05  2951   0.611E-03    0.189E-02
RMM:   8    -0.232108285099E+04    0.37961E-05   -0.72449E-06  2874   0.363E-03
  19 F= -.23419518E+04 E0= -.23419518E+04  d E =-.168561E-01  mag=     3.0000
       N       E                     dE             d eps       ncg     rms          rms(c)
DAV:   1    -0.232101971191E+04    0.63143E-01   -0.42692E+00  4472   0.198E+00    0.635E-01
RMM:   2    -0.232109325775E+04   -0.73546E-01   -0.78105E-01  6185   0.425E-01    0.566E-01
RMM:   3    -0.232109957601E+04   -0.63183E-02   -0.87913E-02  5893   0.170E-01    0.507E-01
RMM:   4    -0.232109801763E+04    0.15584E-02   -0.82640E-03  5451   0.356E-02    0.205E-01
RMM:   5    -0.232109786467E+04    0.15296E-03   -0.14984E-03  5180   0.199E-02    0.184E-01
RMM:   6    -0.232109748338E+04    0.38130E-03   -0.10146E-03  5179   0.173E-02    0.795E-02
RMM:   7    -0.232109744743E+04    0.35949E-04   -0.18465E-04  3879   0.101E-02    0.372E-02
RMM:   8    -0.232109743509E+04    0.12335E-04   -0.28557E-05  2917   0.513E-03    0.137E-02
RMM:   9    -0.232109743189E+04    0.32073E-05   -0.13825E-05  2885   0.334E-03
  20 F= -.23419660E+04 E0= -.23419660E+04  d E =-.141673E-01  mag=     3.0000
       N       E                     dE             d eps       ncg     rms          rms(c)
DAV:   1    -0.232109187915E+04    0.55559E-02   -0.35725E-01  4624   0.574E-01    0.184E-01
RMM:   2    -0.232109803376E+04   -0.61546E-02   -0.65142E-02  6197   0.124E-01    0.169E-01
RMM:   3    -0.232109854269E+04   -0.50893E-03   -0.74091E-03  5100   0.489E-02    0.146E-01
RMM:   4    -0.232109841197E+04    0.13072E-03   -0.69519E-04  3054   0.108E-02    0.593E-02
RMM:   5    -0.232109839896E+04    0.13008E-04   -0.12818E-04  3024   0.688E-03    0.538E-02
RMM:   6    -0.232109836594E+04    0.33020E-04   -0.94276E-05  3031   0.681E-03    0.229E-02
RMM:   7    -0.232109836400E+04    0.19401E-05   -0.20713E-05  2907   0.497E-03
  21 F= -.23419668E+04 E0= -.23419668E+04  d E =-.149674E-01  mag=     3.0000
       N       E                     dE             d eps       ncg     rms          rms(c)
DAV:   1    -0.232105899022E+04    0.39376E-01   -0.27750E+00  4472   0.161E+00    0.509E-01
RMM:   2    -0.232110699897E+04   -0.48009E-01   -0.49836E-01  6325   0.351E-01    0.530E-01
RMM:   3    -0.232110989652E+04   -0.28976E-02   -0.53921E-02  5882   0.137E-01    0.403E-01
RMM:   4    -0.232110879962E+04    0.10969E-02   -0.54157E-03  5286   0.293E-02    0.158E-01
RMM:   5    -0.232110854588E+04    0.25374E-03   -0.91829E-04  4972   0.171E-02    0.119E-01
RMM:   6    -0.232110846169E+04    0.84196E-04   -0.68740E-04  5013   0.146E-02    0.906E-02
RMM:   7    -0.232110836244E+04    0.99250E-04   -0.16995E-04  3454   0.936E-03    0.261E-02
RMM:   8    -0.232110835408E+04    0.83552E-05   -0.23421E-05  2915   0.491E-03
  22 F= -.23419757E+04 E0= -.23419757E+04  d E =-.898869E-02  mag=     3.0000
       N       E                     dE             d eps       ncg     rms          rms(c)
DAV:   1    -0.232110624761E+04    0.21148E-02   -0.14560E-01  4672   0.369E-01    0.117E-01
RMM:   2    -0.232110878083E+04   -0.25332E-02   -0.26268E-02  6355   0.820E-02    0.122E-01
RMM:   3    -0.232110893032E+04   -0.14949E-03   -0.28686E-03  3885   0.308E-02    0.911E-02
RMM:   4    -0.232110887486E+04    0.55457E-04   -0.29062E-04  3004   0.783E-03    0.365E-02
RMM:   5    -0.232110885797E+04    0.16898E-04   -0.49091E-05  2953   0.484E-03    0.250E-02
RMM:   6    -0.232110885628E+04    0.16912E-05   -0.36772E-05  2954   0.472E-03
  23 F= -.23419760E+04 E0= -.23419760E+04  d E =-.926087E-02  mag=     3.0000
       N       E                     dE             d eps       ncg     rms          rms(c)
DAV:   1    -0.232108399981E+04    0.24858E-01   -0.23665E+00  4472   0.149E+00    0.446E-01
RMM:   2    -0.232111558914E+04   -0.31589E-01   -0.33004E-01  6148   0.305E-01    0.354E-01
RMM:   3    -0.232111806390E+04   -0.24748E-02   -0.35430E-02  5825   0.118E-01    0.321E-01
RMM:   4    -0.232111729436E+04    0.76954E-03   -0.38269E-03  5284   0.252E-02    0.145E-01
RMM:   5    -0.232111718344E+04    0.11091E-03   -0.62822E-04  4407   0.141E-02    0.127E-01
RMM:   6    -0.232111701056E+04    0.17289E-03   -0.61874E-04  4818   0.142E-02    0.644E-02
RMM:   7    -0.232111697743E+04    0.33131E-04   -0.11889E-04  3461   0.931E-03    0.272E-02
RMM:   8    -0.232111696870E+04    0.87303E-05   -0.18349E-05  2905   0.460E-03
  24 F= -.23419833E+04 E0= -.23419833E+04  d E =-.729952E-02  mag=     3.0000
       N       E                     dE             d eps       ncg     rms          rms(c)
DAV:   1    -0.232111387698E+04    0.31004E-02   -0.27371E-01  4544   0.508E-01    0.153E-01
RMM:   2    -0.232111757326E+04   -0.36963E-02   -0.38385E-02  6231   0.105E-01    0.126E-01
RMM:   3    -0.232111783474E+04   -0.26148E-03   -0.40847E-03  4786   0.389E-02    0.109E-01
RMM:   4    -0.232111775086E+04    0.83877E-04   -0.44855E-04  3061   0.925E-03    0.501E-02
RMM:   5    -0.232111773730E+04    0.13558E-04   -0.71051E-05  2930   0.568E-03    0.441E-02
RMM:   6    -0.232111771475E+04    0.22549E-04   -0.77886E-05  2985   0.618E-03    0.212E-02
RMM:   7    -0.232111771186E+04    0.28923E-05   -0.18679E-05  2929   0.477E-03
  25 F= -.23419838E+04 E0= -.23419838E+04  d E =-.776637E-02  mag=     3.0000
       N       E                     dE             d eps       ncg     rms          rms(c)
DAV:   1    -0.232109088839E+04    0.26826E-01   -0.25390E+00  4472   0.151E+00    0.442E-01
RMM:   2    -0.232112546016E+04   -0.34572E-01   -0.35298E-01  6253   0.319E-01    0.419E-01
RMM:   3    -0.232112642250E+04   -0.96235E-03   -0.34612E-02  5929   0.113E-01    0.257E-01
RMM:   4    -0.232112604090E+04    0.38160E-03   -0.38666E-03  5178   0.245E-02    0.181E-01
RMM:   5    -0.232112586710E+04    0.17380E-03   -0.59153E-04  3559   0.126E-02    0.136E-01
RMM:   6    -0.232112563750E+04    0.22960E-03   -0.72167E-04  4741   0.165E-02    0.384E-02
RMM:   7    -0.232112564059E+04   -0.30922E-05   -0.11515E-04  3257   0.996E-03    0.172E-02
RMM:   8    -0.232112563636E+04    0.42392E-05   -0.14707E-05  2886   0.380E-03
  26 F= -.23419915E+04 E0= -.23419915E+04  d E =-.767463E-02  mag=     3.0000
       N       E                     dE             d eps       ncg     rms          rms(c)
DAV:   1    -0.232111039779E+04    0.15243E-01   -0.12370E+00  4472   0.106E+00    0.307E-01
RMM:   2    -0.232112719997E+04   -0.16802E-01   -0.17196E-01  6230   0.223E-01    0.284E-01
RMM:   3    -0.232112773642E+04   -0.53645E-03   -0.16685E-02  5796   0.747E-02    0.180E-01
RMM:   4    -0.232112754989E+04    0.18653E-03   -0.18816E-03  4414   0.170E-02    0.127E-01
RMM:   5    -0.232112746376E+04    0.86125E-04   -0.29025E-04  3049   0.928E-03    0.957E-02
RMM:   6    -0.232112735004E+04    0.11373E-03   -0.36792E-04  4316   0.122E-02    0.274E-02
RMM:   7    -0.232112735185E+04   -0.18177E-05   -0.58223E-05  2969   0.752E-03
  27 F= -.23419930E+04 E0= -.23419930E+04  d E =-.921405E-02  mag=     3.0000
       N       E                     dE             d eps       ncg     rms          rms(c)
DAV:   1    -0.232111016830E+04    0.17182E-01   -0.14244E+00  4456   0.114E+00    0.350E-01
RMM:   2    -0.232113277755E+04   -0.22609E-01   -0.23163E-01  6261   0.250E-01    0.313E-01
RMM:   3    -0.232113370462E+04   -0.92708E-03   -0.23896E-02  5818   0.902E-02    0.197E-01
RMM:   4    -0.232113350419E+04    0.20043E-03   -0.24712E-03  4627   0.186E-02    0.141E-01
RMM:   5    -0.232113339170E+04    0.11249E-03   -0.31794E-04  3005   0.941E-03    0.105E-01
RMM:   6    -0.232113326424E+04    0.12746E-03   -0.45062E-04  4350   0.130E-02    0.321E-02
RMM:   7    -0.232113326837E+04   -0.41314E-05   -0.75015E-05  3002   0.816E-03
  28 F= -.23419990E+04 E0= -.23419990E+04  d E =-.596073E-02  mag=     3.0000
       N       E                     dE             d eps       ncg     rms          rms(c)
DAV:   1    -0.232106043896E+04    0.72825E-01   -0.47079E+00  4456   0.208E+00    0.640E-01
RMM:   2    -0.232113566099E+04   -0.75222E-01   -0.76956E-01  6264   0.457E-01    0.583E-01
RMM:   3    -0.232113837710E+04   -0.27161E-02   -0.80225E-02  6005   0.164E-01    0.354E-01
RMM:   4    -0.232113779846E+04    0.57864E-03   -0.83172E-03  5576   0.336E-02    0.260E-01
RMM:   5    -0.232113740191E+04    0.39655E-03   -0.10608E-03  4162   0.154E-02    0.188E-01
RMM:   6    -0.232113697195E+04    0.42995E-03   -0.14448E-03  4897   0.220E-02    0.579E-02
RMM:   7    -0.232113697924E+04   -0.72875E-05   -0.25067E-04  4074   0.130E-02    0.268E-02
RMM:   8    -0.232113696528E+04    0.13957E-04   -0.28341E-05  2920   0.453E-03    0.162E-02
RMM:   9    -0.232113696048E+04    0.48074E-05   -0.24516E-05  2879   0.390E-03
  29 F= -.23420027E+04 E0= -.23420027E+04  d E =-.972614E-02  mag=     3.0000
       N       E                     dE             d eps       ncg     rms          rms(c)
DAV:   1    -0.232111552232E+04    0.21443E-01   -0.14934E+00  4484   0.114E+00    0.356E-01
RMM:   2    -0.232114127923E+04   -0.25757E-01   -0.26468E-01  6346   0.254E-01    0.308E-01
RMM:   3    -0.232114296574E+04   -0.16865E-02   -0.28140E-02  5883   0.921E-02    0.239E-01
RMM:   4    -0.232114267304E+04    0.29271E-03   -0.29726E-03  4191   0.195E-02    0.137E-01
RMM:   5    -0.232114254153E+04    0.13151E-03   -0.32183E-04  3145   0.907E-03    0.103E-01
RMM:   6    -0.232114240928E+04    0.13225E-03   -0.49546E-04  4258   0.131E-02    0.369E-02
RMM:   7    -0.232114240898E+04    0.30024E-06   -0.90373E-05  3062   0.765E-03
  30 F= -.23420082E+04 E0= -.23420082E+04  d E =-.546864E-02  mag=     3.0000
       N       E                     dE             d eps       ncg     rms          rms(c)
DAV:   1    -0.232090608390E+04    0.23633E+00   -0.13407E+01  4472   0.340E+00    0.108E+00
RMM:   2    -0.232113994010E+04   -0.23386E+00   -0.24034E+00  6394   0.767E-01    0.947E-01
RMM:   3    -0.232115560651E+04   -0.15666E-01   -0.26985E-01  6164   0.278E-01    0.703E-01
RMM:   4    -0.232115307013E+04    0.25364E-02   -0.27284E-02  5992   0.581E-02    0.422E-01
RMM:   5    -0.232115179664E+04    0.12735E-02   -0.28535E-03  5242   0.219E-02    0.308E-01
RMM:   6    -0.232115063194E+04    0.11647E-02   -0.40008E-03  5103   0.337E-02    0.121E-01
RMM:   7    -0.232115059501E+04    0.36929E-04   -0.94131E-04  4910   0.193E-02    0.479E-02
RMM:   8    -0.232115055388E+04    0.41132E-04   -0.79182E-05  3276   0.729E-03    0.327E-02
RMM:   9    -0.232115053340E+04    0.20476E-04   -0.74520E-05  2942   0.624E-03    0.815E-03
RMM:  10    -0.232115053322E+04    0.18437E-06   -0.11849E-05  2899   0.313E-03
  31 F= -.23420164E+04 E0= -.23420164E+04  d E =-.136713E-01  mag=     3.0000
       N       E                     dE             d eps       ncg     rms          rms(c)
DAV:   1    -0.232110129969E+04    0.49234E-01   -0.28755E+00  4488   0.153E+00    0.534E-01
RMM:   2    -0.232115588197E+04   -0.54582E-01   -0.56816E-01  6397   0.360E-01    0.360E-01
RMM:   3    -0.232116072322E+04   -0.48412E-02   -0.62782E-02  6067   0.131E-01    0.312E-01
RMM:   4    -0.232116015524E+04    0.56797E-03   -0.62338E-03  5320   0.269E-02    0.186E-01
RMM:   5    -0.232115993933E+04    0.21591E-03   -0.59825E-04  3806   0.117E-02    0.145E-01
RMM:   6    -0.232115970278E+04    0.23656E-03   -0.79757E-04  4652   0.158E-02    0.617E-02
RMM:   7    -0.232115967975E+04    0.23023E-04   -0.18832E-04  3899   0.970E-03    0.210E-02
RMM:   8    -0.232115967178E+04    0.79694E-05   -0.19610E-05  2895   0.487E-03
  32 F= -.23420258E+04 E0= -.23420258E+04  d E =-.936308E-02  mag=     3.0000
       N       E                     dE             d eps       ncg     rms          rms(c)
DAV:   1    -0.232098476466E+04    0.17492E+00   -0.88501E+00  4488   0.268E+00    0.935E-01
RMM:   2    -0.232115248227E+04   -0.16772E+00   -0.17481E+00  6399   0.628E-01    0.625E-01
RMM:   3    -0.232116860471E+04   -0.16122E-01   -0.20158E-01  6177   0.232E-01    0.549E-01
RMM:   4    -0.232116682022E+04    0.17845E-02   -0.19060E-02  6042   0.471E-02    0.330E-01
RMM:   5    -0.232116612511E+04    0.69511E-03   -0.18391E-03  4987   0.186E-02    0.250E-01
RMM:   6    -0.232116547959E+04    0.64552E-03   -0.22408E-03  5301   0.246E-02    0.124E-01
RMM:   7    -0.232116534662E+04    0.13297E-03   -0.68330E-04  4947   0.157E-02    0.370E-02
RMM:   8    -0.232116532069E+04    0.25928E-04   -0.54061E-05  3023   0.707E-03    0.245E-02
RMM:   9    -0.232116530628E+04    0.14409E-04   -0.42917E-05  2897   0.504E-03    0.749E-03
RMM:  10    -0.232116530505E+04    0.12324E-05   -0.90942E-06  2895   0.307E-03
  33 F= -.23420318E+04 E0= -.23420318E+04  d E =-.154101E-01  mag=     3.0000
       N       E                     dE             d eps       ncg     rms          rms(c)
DAV:   1    -0.232110640138E+04    0.58905E-01   -0.30352E+00  4496   0.150E+00    0.547E-01
RMM:   2    -0.232116731012E+04   -0.60909E-01   -0.63320E-01  6477   0.362E-01    0.368E-01
RMM:   3    -0.232117215840E+04   -0.48483E-02   -0.67590E-02  6110   0.133E-01    0.251E-01
RMM:   4    -0.232117176790E+04    0.39050E-03   -0.67817E-03  5336   0.272E-02    0.177E-01
RMM:   5    -0.232117159553E+04    0.17237E-03   -0.59957E-04  3579   0.120E-02    0.162E-01
RMM:   6    -0.232117133573E+04    0.25981E-03   -0.77987E-04  4485   0.146E-02    0.700E-02
RMM:   7    -0.232117130742E+04    0.28305E-04   -0.22568E-04  3823   0.960E-03    0.194E-02
RMM:   8    -0.232117129845E+04    0.89690E-05   -0.18372E-05  2924   0.494E-03
  34 F= -.23420382E+04 E0= -.23420382E+04  d E =-.637118E-02  mag=     3.0000
       N       E                     dE             d eps       ncg     rms          rms(c)
DAV:   1    -0.232108128043E+04    0.90027E-01   -0.42904E+00  4472   0.179E+00    0.650E-01
RMM:   2    -0.232116740170E+04   -0.86121E-01   -0.89590E-01  6475   0.429E-01    0.436E-01
RMM:   3    -0.232117445713E+04   -0.70554E-02   -0.96783E-02  6169   0.157E-01    0.303E-01
RMM:   4    -0.232117389599E+04    0.56113E-03   -0.96016E-03  5571   0.322E-02    0.213E-01
RMM:   5    -0.232117363932E+04    0.25668E-03   -0.84793E-04  3974   0.139E-02    0.191E-01
RMM:   6    -0.232117328097E+04    0.35835E-03   -0.10874E-03  4766   0.169E-02    0.874E-02
RMM:   7    -0.232117323138E+04    0.49586E-04   -0.35349E-04  4355   0.113E-02    0.245E-02
RMM:   8    -0.232117321699E+04    0.14391E-04   -0.27330E-05  2943   0.535E-03    0.187E-02
RMM:   9    -0.232117320936E+04    0.76260E-05   -0.24663E-05  2886   0.391E-03
  35 F= -.23420405E+04 E0= -.23420405E+04  d E =-.872799E-02  mag=     3.0000
       N       E                     dE             d eps       ncg     rms          rms(c)
DAV:   1    -0.232115433171E+04    0.18885E-01   -0.10152E+00  4576   0.836E-01    0.339E-01
RMM:   2    -0.232117716482E+04   -0.22833E-01   -0.23075E-01  6394   0.206E-01    0.332E-01
RMM:   3    -0.232117778617E+04   -0.62135E-03   -0.23349E-02  5782   0.789E-02    0.179E-01
RMM:   4    -0.232117763108E+04    0.15510E-03   -0.25945E-03  3673   0.168E-02    0.121E-01
RMM:   5    -0.232117753498E+04    0.96095E-04   -0.23002E-04  3034   0.800E-03    0.921E-02
RMM:   6    -0.232117742108E+04    0.11390E-03   -0.32973E-04  4074   0.105E-02    0.372E-02
RMM:   7    -0.232117741920E+04    0.18804E-05   -0.91568E-05  2970   0.749E-03
  36 F= -.23420450E+04 E0= -.23420450E+04  d E =-.448003E-02  mag=     3.0000
       N       E                     dE             d eps       ncg     rms          rms(c)
DAV:   1    -0.232097123723E+04    0.20618E+00   -0.90774E+00  4472   0.250E+00    0.103E+00
RMM:   2    -0.232117860108E+04   -0.20736E+00   -0.21024E+00  6441   0.635E-01    0.993E-01
RMM:   3    -0.232118449585E+04   -0.58948E-02   -0.22071E-01  6175   0.237E-01    0.556E-01
RMM:   4    -0.232118306520E+04    0.14306E-02   -0.23886E-02  5622   0.501E-02    0.384E-01
RMM:   5    -0.232118204532E+04    0.10199E-02   -0.23009E-03  5003   0.204E-02    0.275E-01
RMM:   6    -0.232118101219E+04    0.10331E-02   -0.27600E-03  5248   0.273E-02    0.118E-01
RMM:   7    -0.232118097003E+04    0.42159E-04   -0.92082E-04  4624   0.185E-02    0.405E-02
RMM:   8    -0.232118093517E+04    0.34864E-04   -0.65852E-05  3023   0.619E-03    0.220E-02
RMM:   9    -0.232118092126E+04    0.13905E-04   -0.51085E-05  2936   0.487E-03    0.761E-03
RMM:  10    -0.232118092089E+04    0.37791E-06   -0.86107E-06  2879   0.301E-03
  37 F= -.23420492E+04 E0= -.23420492E+04  d E =-.870405E-02  mag=     3.0000
       N       E                     dE             d eps       ncg     rms          rms(c)
DAV:   1    -0.232117041114E+04    0.10510E-01   -0.56859E-01  4576   0.614E-01    0.256E-01
RMM:   2    -0.232118346662E+04   -0.13055E-01   -0.13217E-01  6451   0.155E-01    0.244E-01
RMM:   3    -0.232118386359E+04   -0.39697E-03   -0.13130E-02  5406   0.574E-02    0.135E-01
RMM:   4    -0.232118377492E+04    0.88666E-04   -0.14801E-03  3171   0.128E-02    0.907E-02
RMM:   5    -0.232118371769E+04    0.57229E-04   -0.12778E-04  2970   0.627E-03    0.671E-02
RMM:   6    -0.232118365547E+04    0.62221E-04   -0.18076E-04  3426   0.787E-03    0.274E-02
RMM:   7    -0.232118365501E+04    0.45681E-06   -0.53681E-05  2949   0.569E-03
  38 F= -.23420521E+04 E0= -.23420521E+04  d E =-.286410E-02  mag=     3.0000
       N       E                     dE             d eps       ncg     rms          rms(c)
DAV:   1    -0.232106739270E+04    0.11626E+00   -0.51045E+00  4472   0.184E+00    0.775E-01
RMM:   2    -0.232118596260E+04   -0.11857E+00   -0.12021E+00  6492   0.473E-01    0.739E-01
RMM:   3    -0.232118959359E+04   -0.36310E-02   -0.12454E-01  6170   0.176E-01    0.411E-01
RMM:   4    -0.232118886348E+04    0.73010E-03   -0.13729E-02  5384   0.376E-02    0.287E-01
RMM:   5    -0.232118826943E+04    0.59405E-03   -0.12291E-03  4415   0.154E-02    0.201E-01
RMM:   6    -0.232118769715E+04    0.57228E-03   -0.15283E-03  5163   0.205E-02    0.848E-02
RMM:   7    -0.232118767802E+04    0.19137E-04   -0.50712E-04  4140   0.138E-02    0.297E-02
RMM:   8    -0.232118766059E+04    0.17421E-04   -0.38649E-05  2913   0.512E-03    0.163E-02
RMM:   9    -0.232118765324E+04    0.73530E-05   -0.30169E-05  2904   0.397E-03
  39 F= -.23420564E+04 E0= -.23420564E+04  d E =-.720660E-02  mag=     3.0000
       N       E                     dE             d eps       ncg     rms          rms(c)
DAV:   1    -0.232118843068E+04   -0.77008E-03   -0.88423E-02  4800   0.289E-01    0.114E-01
RMM:   2    -0.232119021904E+04   -0.17884E-02   -0.18808E-02  6261   0.707E-02    0.774E-02
RMM:   3    -0.232119040156E+04   -0.18253E-03   -0.21503E-03  3849   0.281E-02    0.936E-02
RMM:   4    -0.232119033779E+04    0.63778E-04   -0.20544E-04  2958   0.750E-03    0.311E-02
RMM:   5    -0.232119033173E+04    0.60569E-05   -0.45678E-05  2953   0.488E-03
  40 F= -.23420591E+04 E0= -.23420591E+04  d E =-.265802E-02  mag=     3.0000
       N       E                     dE             d eps       ncg     rms          rms(c)
DAV:   1    -0.232117692304E+04    0.13415E-01   -0.79247E-01  4480   0.865E-01    0.341E-01
RMM:   2    -0.232119301148E+04   -0.16088E-01   -0.16904E-01  6273   0.210E-01    0.235E-01
RMM:   3    -0.232119462551E+04   -0.16140E-02   -0.19226E-02  5917   0.828E-02    0.276E-01
RMM:   4    -0.232119406582E+04    0.55970E-03   -0.18253E-03  4765   0.190E-02    0.964E-02
RMM:   5    -0.232119402978E+04    0.36040E-04   -0.41062E-04  4470   0.121E-02    0.882E-02
RMM:   6    -0.232119394298E+04    0.86803E-04   -0.23637E-04  3576   0.101E-02    0.391E-02
RMM:   7    -0.232119392792E+04    0.15059E-04   -0.47399E-05  3046   0.677E-03    0.189E-02
RMM:   8    -0.232119392511E+04    0.28073E-05   -0.11246E-05  2884   0.456E-03
  41 F= -.23420626E+04 E0= -.23420626E+04  d E =-.619132E-02  mag=     3.0000
       N       E                     dE             d eps       ncg     rms          rms(c)
DAV:   1    -0.232119265314E+04    0.12748E-02   -0.20911E-01  4544   0.452E-01    0.160E-01
RMM:   2    -0.232119616733E+04   -0.35142E-02   -0.36905E-02  6200   0.102E-01    0.115E-01
RMM:   3    -0.232119650521E+04   -0.33789E-03   -0.40942E-03  4894   0.400E-02    0.132E-01
RMM:   4    -0.232119637584E+04    0.12937E-03   -0.41053E-04  3003   0.956E-03    0.425E-02
RMM:   5    -0.232119636708E+04    0.87547E-05   -0.79679E-05  2986   0.626E-03
  42 F= -.23420651E+04 E0= -.23420651E+04  d E =-.245237E-02  mag=     3.0000
       N       E                     dE             d eps       ncg     rms          rms(c)
DAV:   1    -0.232118623370E+04    0.10142E-01   -0.65691E-01  4480   0.801E-01    0.285E-01
RMM:   2    -0.232119726835E+04   -0.11035E-01   -0.11564E-01  6253   0.180E-01    0.205E-01
RMM:   3    -0.232119829878E+04   -0.10304E-02   -0.13089E-02  5787   0.716E-02    0.221E-01
RMM:   4    -0.232119792098E+04    0.37780E-03   -0.12944E-03  4175   0.162E-02    0.809E-02
RMM:   5    -0.232119790446E+04    0.16524E-04   -0.26326E-04  3848   0.104E-02    0.773E-02
RMM:   6    -0.232119783134E+04    0.73115E-04   -0.15815E-04  3613   0.889E-03    0.305E-02
RMM:   7    -0.232119782361E+04    0.77306E-05   -0.34126E-05  2952   0.632E-03
  43 F= -.23420666E+04 E0= -.23420666E+04  d E =-.392821E-02  mag=     3.0000
       N       E                     dE             d eps       ncg     rms          rms(c)
DAV:   1    -0.232119661687E+04    0.12145E-02   -0.21560E-01  4480   0.447E-01    0.136E-01
RMM:   2    -0.232119963677E+04   -0.30199E-02   -0.31713E-02  6297   0.918E-02    0.807E-02
RMM:   3    -0.232119990232E+04   -0.26555E-03   -0.35137E-03  4434   0.346E-02    0.649E-02
RMM:   4    -0.232119987186E+04    0.30462E-04   -0.34390E-04  3000   0.844E-03    0.409E-02
RMM:   5    -0.232119986928E+04    0.25762E-05   -0.48486E-05  2932   0.498E-03
  44 F= -.23420686E+04 E0= -.23420686E+04  d E =-.206667E-02  mag=     3.0000
       N       E                     dE             d eps       ncg     rms          rms(c)
DAV:   1    -0.232117457952E+04    0.25292E-01   -0.19376E+00  4456   0.134E+00    0.405E-01
RMM:   2    -0.232120179911E+04   -0.27220E-01   -0.28479E-01  6224   0.273E-01    0.254E-01
RMM:   3    -0.232120408784E+04   -0.22887E-02   -0.31747E-02  5885   0.104E-01    0.194E-01
RMM:   4    -0.232120379288E+04    0.29496E-03   -0.30594E-03  5110   0.223E-02    0.120E-01
RMM:   5    -0.232120376234E+04    0.30540E-04   -0.46185E-04  4340   0.128E-02    0.126E-01
RMM:   6    -0.232120363864E+04    0.12370E-03   -0.31279E-04  3710   0.106E-02    0.559E-02
RMM:   7    -0.232120361793E+04    0.20707E-04   -0.62508E-05  3110   0.709E-03    0.160E-02
RMM:   8    -0.232120361594E+04    0.19941E-05   -0.10744E-05  2893   0.469E-03
  45 F= -.23420724E+04 E0= -.23420724E+04  d E =-.587470E-02  mag=     3.0000
       N       E                     dE             d eps       ncg     rms          rms(c)
DAV:   1    -0.232108355939E+04    0.12006E+00   -0.77615E+00  4456   0.269E+00    0.815E-01
RMM:   2    -0.232119332619E+04   -0.10977E+00   -0.11480E+00  6230   0.550E-01    0.516E-01
RMM:   3    -0.232120237829E+04   -0.90521E-02   -0.12809E-01  6003   0.204E-01    0.410E-01
RMM:   4    -0.232120130702E+04    0.10713E-02   -0.12328E-02  5947   0.437E-02    0.263E-01
RMM:   5    -0.232120106567E+04    0.24135E-03   -0.16848E-03  5130   0.206E-02    0.234E-01
RMM:   6    -0.232120056651E+04    0.49916E-03   -0.14330E-03  5164   0.210E-02    0.100E-01
RMM:   7    -0.232120048660E+04    0.79913E-04   -0.32365E-04  4626   0.129E-02    0.334E-02
RMM:   8    -0.232120047398E+04    0.12623E-04   -0.35860E-05  2961   0.609E-03    0.176E-02
RMM:   9    -0.232120046958E+04    0.43975E-05   -0.19642E-05  2883   0.419E-03
  46 F= -.23420694E+04 E0= -.23420694E+04  d E =-.284536E-02  mag=     3.0000
       N       E                     dE             d eps       ncg     rms          rms(c)
DAV:   1    -0.232114614989E+04    0.54324E-01   -0.38389E+00  4456   0.189E+00    0.570E-01
RMM:   2    -0.232120007559E+04   -0.53926E-01   -0.56790E-01  6203   0.386E-01    0.327E-01
RMM:   3    -0.232120514811E+04   -0.50725E-02   -0.66139E-02  5859   0.147E-01    0.280E-01
RMM:   4    -0.232120452968E+04    0.61842E-03   -0.62355E-03  5656   0.313E-02    0.168E-01
RMM:   5    -0.232120440596E+04    0.12373E-03   -0.84561E-04  4653   0.160E-02    0.161E-01
RMM:   6    -0.232120424080E+04    0.16516E-03   -0.67275E-04  4570   0.141E-02    0.946E-02
RMM:   7    -0.232120416347E+04    0.77334E-04   -0.15707E-04  3780   0.954E-03    0.225E-02
RMM:   8    -0.232120415782E+04    0.56505E-05   -0.31315E-05  2974   0.563E-03
  47 F= -.23420730E+04 E0= -.23420730E+04  d E =-.645193E-02  mag=     3.0000
       N       E                     dE             d eps       ncg     rms          rms(c)
DAV:   1    -0.232120234346E+04    0.18200E-02   -0.25120E-01  4464   0.480E-01    0.153E-01
RMM:   2    -0.232120629360E+04   -0.39501E-02   -0.40750E-02  6232   0.992E-02    0.110E-01
RMM:   3    -0.232120661621E+04   -0.32260E-03   -0.45423E-03  4710   0.383E-02    0.964E-02
RMM:   4    -0.232120654738E+04    0.68824E-04   -0.44692E-04  2992   0.899E-03    0.487E-02
RMM:   5    -0.232120653810E+04    0.92865E-05   -0.58686E-05  2943   0.510E-03
  48 F= -.23420755E+04 E0= -.23420755E+04  d E =-.244598E-02  mag=     3.0000
       N       E                     dE             d eps       ncg     rms          rms(c)
DAV:   1    -0.232117319753E+04    0.33350E-01   -0.22530E+00  4440   0.144E+00    0.460E-01
RMM:   2    -0.232120871976E+04   -0.35522E-01   -0.36676E-01  6235   0.296E-01    0.328E-01
RMM:   3    -0.232121162545E+04   -0.29057E-02   -0.41401E-02  5888   0.113E-01    0.272E-01
RMM:   4    -0.232121106439E+04    0.56107E-03   -0.40820E-03  5079   0.245E-02    0.150E-01
RMM:   5    -0.232121099387E+04    0.70515E-04   -0.53161E-04  3939   0.122E-02    0.135E-01
RMM:   6    -0.232121080584E+04    0.18803E-03   -0.49907E-04  4637   0.140E-02    0.493E-02
RMM:   7    -0.232121079773E+04    0.81131E-05   -0.90811E-05  3188   0.908E-03
  49 F= -.23420799E+04 E0= -.23420799E+04  d E =-.689280E-02  mag=     3.0000
       N       E                     dE             d eps       ncg     rms          rms(c)
DAV:   1    -0.232105437868E+04    0.15643E+00   -0.90271E+00  4440   0.288E+00    0.928E-01
RMM:   2    -0.232119760353E+04   -0.14322E+00   -0.14823E+00  6209   0.600E-01    0.639E-01
RMM:   3    -0.232120989713E+04   -0.12294E-01   -0.17021E-01  5977   0.231E-01    0.543E-01
RMM:   4    -0.232120778014E+04    0.21170E-02   -0.16587E-02  5933   0.485E-02    0.315E-01
RMM:   5    -0.232120729618E+04    0.48396E-03   -0.20070E-03  5222   0.210E-02    0.252E-01
RMM:   6    -0.232120665730E+04    0.63888E-03   -0.19345E-03  5226   0.253E-02    0.108E-01
RMM:   7    -0.232120659034E+04    0.66959E-04   -0.44308E-04  4532   0.155E-02    0.311E-02
RMM:   8    -0.232120657546E+04    0.14877E-04   -0.42886E-05  3057   0.651E-03    0.196E-02
RMM:   9    -0.232120656888E+04    0.65790E-05   -0.28731E-05  2885   0.476E-03
  50 F= -.23420760E+04 E0= -.23420760E+04  d E =-.299560E-02  mag=     3.0000
       N       E                     dE             d eps       ncg     rms          rms(c)
DAV:   1    -0.232113635440E+04    0.70221E-01   -0.45530E+00  4456   0.204E+00    0.654E-01
RMM:   2    -0.232120762466E+04   -0.71270E-01   -0.73342E-01  6202   0.421E-01    0.510E-01
RMM:   3    -0.232121321604E+04   -0.55914E-02   -0.84658E-02  5878   0.162E-01    0.436E-01
RMM:   4    -0.232121190833E+04    0.13077E-02   -0.83052E-03  5694   0.360E-02    0.206E-01
RMM:   5    -0.232121170063E+04    0.20769E-03   -0.10402E-03  4666   0.161E-02    0.176E-01
RMM:   6    -0.232121137507E+04    0.32557E-03   -0.90930E-04  5040   0.177E-02    0.760E-02
RMM:   7    -0.232121134309E+04    0.31974E-04   -0.21734E-04  4178   0.113E-02    0.359E-02
RMM:   8    -0.232121133139E+04    0.11706E-04   -0.36400E-05  2934   0.558E-03    0.157E-02
RMM:   9    -0.232121132729E+04    0.41006E-05   -0.17054E-05  2876   0.409E-03
  51 F= -.23420805E+04 E0= -.23420805E+04  d E =-.752468E-02  mag=     3.0000
       N       E                     dE             d eps       ncg     rms          rms(c)
DAV:   1    -0.232120291447E+04    0.84169E-02   -0.62585E-01  4464   0.741E-01    0.246E-01
RMM:   2    -0.232121389951E+04   -0.10985E-01   -0.11259E-01  6212   0.154E-01    0.200E-01
RMM:   3    -0.232121471283E+04   -0.81331E-03   -0.12122E-02  5477   0.585E-02    0.167E-01
RMM:   4    -0.232121451382E+04    0.19900E-03   -0.12582E-03  3307   0.132E-02    0.801E-02
RMM:   5    -0.232121447440E+04    0.39425E-04   -0.14421E-04  3025   0.725E-03    0.636E-02
RMM:   6    -0.232121442153E+04    0.52873E-04   -0.13674E-04  3459   0.793E-03    0.255E-02
RMM:   7    -0.232121441997E+04    0.15571E-05   -0.37145E-05  2960   0.564E-03
  52 F= -.23420837E+04 E0= -.23420837E+04  d E =-.318968E-02  mag=     3.0000
       N       E                     dE             d eps       ncg     rms          rms(c)
DAV:   1    -0.232111396181E+04    0.10046E+00   -0.56314E+00  4440   0.222E+00    0.742E-01
RMM:   2    -0.232121302691E+04   -0.99065E-01   -0.10189E+00  6273   0.464E-01    0.571E-01
RMM:   3    -0.232122113459E+04   -0.81077E-02   -0.11246E-01  6000   0.179E-01    0.507E-01
RMM:   4    -0.232121929901E+04    0.18356E-02   -0.11616E-02  5836   0.384E-02    0.252E-01
RMM:   5    -0.232121888740E+04    0.41161E-03   -0.13026E-03  4876   0.166E-02    0.189E-01
RMM:   6    -0.232121844714E+04    0.44026E-03   -0.11942E-03  5099   0.198E-02    0.839E-02
RMM:   7    -0.232121841493E+04    0.32205E-04   -0.36034E-04  4297   0.132E-02    0.268E-02
RMM:   8    -0.232121840456E+04    0.10370E-04   -0.29062E-05  2942   0.547E-03    0.156E-02
RMM:   9    -0.232121840117E+04    0.33937E-05   -0.21463E-05  2886   0.402E-03
  53 F= -.23420880E+04 E0= -.23420880E+04  d E =-.742759E-02  mag=     3.0000
       N       E                     dE             d eps       ncg     rms          rms(c)
DAV:   1    -0.232120233095E+04    0.16074E-01   -0.97588E-01  4468   0.913E-01    0.327E-01
RMM:   2    -0.232122117663E+04   -0.18846E-01   -0.19303E-01  6214   0.198E-01    0.267E-01
RMM:   3    -0.232122257164E+04   -0.13950E-02   -0.20292E-02  5805   0.768E-02    0.232E-01
RMM:   4    -0.232122218453E+04    0.38711E-03   -0.21799E-03  3867   0.174E-02    0.101E-01
RMM:   5    -0.232122212391E+04    0.60617E-04   -0.26435E-04  3085   0.872E-03    0.808E-02
RMM:   6    -0.232122204370E+04    0.80214E-04   -0.21202E-04  3906   0.958E-03    0.334E-02
RMM:   7    -0.232122204044E+04    0.32604E-05   -0.61203E-05  3021   0.680E-03
  54 F= -.23420918E+04 E0= -.23420918E+04  d E =-.387364E-02  mag=     3.0000
       N       E                     dE             d eps       ncg     rms          rms(c)
DAV:   1    -0.232111757826E+04    0.10447E+00   -0.52751E+00  4456   0.212E+00    0.759E-01
RMM:   2    -0.232121911190E+04   -0.10153E+00   -0.10450E+00  6272   0.463E-01    0.584E-01
RMM:   3    -0.232122755914E+04   -0.84472E-02   -0.11343E-01  6018   0.180E-01    0.537E-01
RMM:   4    -0.232122545878E+04    0.21004E-02   -0.11975E-02  5829   0.397E-02    0.243E-01
RMM:   5    -0.232122508811E+04    0.37067E-03   -0.13045E-03  4859   0.163E-02    0.186E-01
RMM:   6    -0.232122468195E+04    0.40617E-03   -0.10658E-03  5062   0.185E-02    0.852E-02
RMM:   7    -0.232122464257E+04    0.39373E-04   -0.36354E-04  4459   0.132E-02    0.259E-02
RMM:   8    -0.232122463105E+04    0.11521E-04   -0.27957E-05  2925   0.550E-03    0.156E-02
RMM:   9    -0.232122462603E+04    0.50179E-05   -0.22339E-05  2886   0.417E-03
  55 F= -.23420949E+04 E0= -.23420949E+04  d E =-.698099E-02  mag=     3.0000
       N       E                     dE             d eps       ncg     rms          rms(c)
DAV:   1    -0.232121391125E+04    0.10720E-01   -0.61212E-01  4560   0.690E-01    0.253E-01
RMM:   2    -0.232122625130E+04   -0.12340E-01   -0.12704E-01  6388   0.154E-01    0.196E-01
RMM:   3    -0.232122721927E+04   -0.96797E-03   -0.13206E-02  5537   0.584E-02    0.169E-01
RMM:   4    -0.232122702158E+04    0.19769E-03   -0.14282E-03  3185   0.135E-02    0.786E-02
RMM:   5    -0.232122698849E+04    0.33093E-04   -0.13729E-04  2993   0.671E-03    0.640E-02
RMM:   6    -0.232122694040E+04    0.48082E-04   -0.13144E-04  3120   0.720E-03    0.275E-02
RMM:   7    -0.232122693875E+04    0.16524E-05   -0.40011E-05  2947   0.534E-03
  56 F= -.23420975E+04 E0= -.23420975E+04  d E =-.254446E-02  mag=     3.0000
       N       E                     dE             d eps       ncg     rms          rms(c)
DAV:   1    -0.232111281630E+04    0.11412E+00   -0.54987E+00  4472   0.207E+00    0.758E-01
RMM:   2    -0.232122348175E+04   -0.11067E+00   -0.11441E+00  6431   0.464E-01    0.552E-01
RMM:   3    -0.232123294291E+04   -0.94612E-02   -0.12331E-01  6086   0.175E-01    0.491E-01
RMM:   4    -0.232123132569E+04    0.16172E-02   -0.12919E-02  5613   0.386E-02    0.247E-01
RMM:   5    -0.232123097003E+04    0.35566E-03   -0.12436E-03  4636   0.154E-02    0.189E-01
RMM:   6    -0.232123058247E+04    0.38756E-03   -0.11226E-03  4981   0.176E-02    0.919E-02
RMM:   7    -0.232123053231E+04    0.50157E-04   -0.40574E-04  4385   0.123E-02    0.279E-02
RMM:   8    -0.232123052143E+04    0.10882E-04   -0.29574E-05  2938   0.575E-03    0.176E-02
RMM:   9    -0.232123051618E+04    0.52496E-05   -0.23204E-05  2887   0.402E-03
  57 F= -.23421017E+04 E0= -.23421017E+04  d E =-.680401E-02  mag=     3.0000
       N       E                     dE             d eps       ncg     rms          rms(c)
DAV:   1    -0.232121864820E+04    0.11873E-01   -0.56173E-01  4528   0.660E-01    0.243E-01
RMM:   2    -0.232122999124E+04   -0.11343E-01   -0.11672E-01  6344   0.148E-01    0.190E-01
RMM:   3    -0.232123087622E+04   -0.88498E-03   -0.12115E-02  5573   0.564E-02    0.163E-01
RMM:   4    -0.232123068964E+04    0.18658E-03   -0.13122E-03  3155   0.129E-02    0.748E-02
RMM:   5    -0.232123065943E+04    0.30208E-04   -0.12602E-04  2978   0.645E-03    0.612E-02
RMM:   6    -0.232123061529E+04    0.44145E-04   -0.11910E-04  3069   0.687E-03    0.265E-02
RMM:   7    -0.232123061329E+04    0.19939E-05   -0.37618E-05  2949   0.521E-03
  58 F= -.23421021E+04 E0= -.23421021E+04  d E =-.711523E-02  mag=     3.0000
       N       E                     dE             d eps       ncg     rms          rms(c)
DAV:   1    -0.232122943372E+04    0.11816E-02   -0.21061E-01  4528   0.436E-01    0.165E-01
RMM:   2    -0.232123302681E+04   -0.35931E-02   -0.38037E-02  6206   0.100E-01    0.941E-02
RMM:   3    -0.232123330356E+04   -0.27675E-03   -0.39924E-03  5027   0.414E-02    0.754E-02
RMM:   4    -0.232123325559E+04    0.47976E-04   -0.41659E-04  3122   0.975E-03    0.492E-02
RMM:   5    -0.232123325084E+04    0.47470E-05   -0.84326E-05  2968   0.678E-03
  59 F= -.23421049E+04 E0= -.23421049E+04  d E =-.280239E-02  mag=     3.0000
       N       E                     dE             d eps       ncg     rms          rms(c)
DAV:   1    -0.232122403852E+04    0.92171E-02   -0.58060E-01  4496   0.723E-01    0.274E-01
RMM:   2    -0.232123396978E+04   -0.99313E-02   -0.10483E-01  6193   0.166E-01    0.165E-01
RMM:   3    -0.232123471474E+04   -0.74497E-03   -0.11274E-02  5682   0.694E-02    0.130E-01
RMM:   4    -0.232123454291E+04    0.17183E-03   -0.11517E-03  4467   0.160E-02    0.754E-02
RMM:   5    -0.232123452491E+04    0.18002E-04   -0.25927E-04  4293   0.111E-02    0.866E-02
RMM:   6    -0.232123447078E+04    0.54131E-04   -0.13676E-04  3038   0.847E-03    0.345E-02
RMM:   7    -0.232123446083E+04    0.99466E-05   -0.21282E-05  2890   0.532E-03
  60 F= -.23421063E+04 E0= -.23421063E+04  d E =-.428519E-02  mag=     3.0000
       N       E                     dE             d eps       ncg     rms          rms(c)
DAV:   1    -0.232123204599E+04    0.24248E-02   -0.22729E-01  4512   0.452E-01    0.159E-01
RMM:   2    -0.232123596844E+04   -0.39225E-02   -0.41285E-02  6272   0.103E-01    0.945E-02
RMM:   3    -0.232123627953E+04   -0.31108E-03   -0.44298E-03  4867   0.405E-02    0.700E-02
RMM:   4    -0.232123623944E+04    0.40085E-04   -0.43849E-04  3030   0.935E-03    0.430E-02
RMM:   5    -0.232123622665E+04    0.12789E-04   -0.73978E-05  2957   0.662E-03    0.391E-02
RMM:   6    -0.232123622104E+04    0.56074E-05   -0.48091E-05  2895   0.577E-03
  61 F= -.23421082E+04 E0= -.23421082E+04  d E =-.189457E-02  mag=     3.0000
       N       E                     dE             d eps       ncg     rms          rms(c)
DAV:   1    -0.232122330018E+04    0.12926E-01   -0.74921E-01  4472   0.820E-01    0.288E-01
RMM:   2    -0.232123623029E+04   -0.12930E-01   -0.13623E-01  6195   0.185E-01    0.166E-01
RMM:   3    -0.232123725585E+04   -0.10256E-02   -0.14540E-02  5730   0.693E-02    0.121E-01
RMM:   4    -0.232123715350E+04    0.10234E-03   -0.14353E-03  4149   0.153E-02    0.785E-02
RMM:   5    -0.232123710170E+04    0.51801E-04   -0.23185E-04  3908   0.103E-02    0.671E-02
RMM:   6    -0.232123708817E+04    0.13533E-04   -0.14823E-04  3063   0.820E-03    0.548E-02
RMM:   7    -0.232123706334E+04    0.24835E-04   -0.38192E-05  2886   0.613E-03    0.939E-03
RMM:   8    -0.232123706133E+04    0.20070E-05   -0.81657E-06  2887   0.372E-03
  62 F= -.23421093E+04 E0= -.23421093E+04  d E =-.297851E-02  mag=     3.0000
       N       E                     dE             d eps       ncg     rms          rms(c)
DAV:   1    -0.232123441191E+04    0.26514E-02   -0.25700E-01  4480   0.484E-01    0.156E-01
RMM:   2    -0.232123872563E+04   -0.43137E-02   -0.44875E-02  6345   0.106E-01    0.102E-01
RMM:   3    -0.232123905758E+04   -0.33195E-03   -0.48169E-03  4734   0.394E-02    0.704E-02
RMM:   4    -0.232123901572E+04    0.41860E-04   -0.46467E-04  3031   0.916E-03    0.453E-02
RMM:   5    -0.232123900220E+04    0.13527E-04   -0.73665E-05  2949   0.619E-03    0.441E-02
RMM:   6    -0.232123898900E+04    0.13194E-04   -0.52875E-05  2922   0.560E-03    0.257E-02
RMM:   7    -0.232123898439E+04    0.46155E-05   -0.14493E-05  2900   0.414E-03
  63 F= -.23421113E+04 E0= -.23421113E+04  d E =-.193848E-02  mag=     3.0000
       N       E                     dE             d eps       ncg     rms          rms(c)
DAV:   1    -0.232121630002E+04    0.22689E-01   -0.13610E+00  4456   0.111E+00    0.358E-01
RMM:   2    -0.232123913564E+04   -0.22836E-01   -0.23776E-01  6390   0.244E-01    0.234E-01
RMM:   3    -0.232124089358E+04   -0.17579E-02   -0.25594E-02  5888   0.908E-02    0.161E-01
RMM:   4    -0.232124067533E+04    0.21825E-03   -0.24543E-03  4804   0.197E-02    0.104E-01
RMM:   5    -0.232124060552E+04    0.69819E-04   -0.38443E-04  4243   0.120E-02    0.102E-01
RMM:   6    -0.232124053315E+04    0.72366E-04   -0.26026E-04  3478   0.102E-02    0.582E-02
RMM:   7    -0.232124050697E+04    0.26182E-04   -0.64044E-05  3094   0.681E-03    0.111E-02
RMM:   8    -0.232124050493E+04    0.20317E-05   -0.99008E-06  2895   0.454E-03
  64 F= -.23421128E+04 E0= -.23421128E+04  d E =-.349547E-02  mag=     3.0000
       N       E                     dE             d eps       ncg     rms          rms(c)
DAV:   1    -0.232123696299E+04    0.35440E-02   -0.33069E-01  4480   0.560E-01    0.178E-01
RMM:   2    -0.232124233273E+04   -0.53697E-02   -0.55445E-02  6278   0.119E-01    0.135E-01
RMM:   3    -0.232124272554E+04   -0.39281E-03   -0.59949E-03  5184   0.446E-02    0.108E-01
RMM:   4    -0.232124264088E+04    0.84661E-04   -0.62151E-04  3034   0.104E-02    0.603E-02
RMM:   5    -0.232124262403E+04    0.16850E-04   -0.81334E-05  2951   0.593E-03    0.497E-02
RMM:   6    -0.232124259340E+04    0.30633E-04   -0.79640E-05  3029   0.661E-03    0.170E-02
RMM:   7    -0.232124259314E+04    0.25373E-06   -0.19025E-05  2910   0.495E-03
  65 F= -.23421149E+04 E0= -.23421149E+04  d E =-.203792E-02  mag=     3.0000
       N       E                     dE             d eps       ncg     rms          rms(c)
DAV:   1    -0.232121847327E+04    0.24120E-01   -0.15163E+00  4456   0.120E+00    0.383E-01
RMM:   2    -0.232124309384E+04   -0.24621E-01   -0.25439E-01  6306   0.255E-01    0.289E-01
RMM:   3    -0.232124493107E+04   -0.18372E-02   -0.27629E-02  5865   0.972E-02    0.235E-01
RMM:   4    -0.232124452747E+04    0.40361E-03   -0.28606E-03  4811   0.215E-02    0.130E-01
RMM:   5    -0.232124445185E+04    0.75621E-04   -0.37306E-04  3616   0.106E-02    0.107E-01
RMM:   6    -0.232124431004E+04    0.14180E-03   -0.35026E-04  4392   0.124E-02    0.357E-02
RMM:   7    -0.232124430562E+04    0.44214E-05   -0.74445E-05  3099   0.835E-03
  66 F= -.23421165E+04 E0= -.23421165E+04  d E =-.364174E-02  mag=     3.0000
       N       E                     dE             d eps       ncg     rms          rms(c)
DAV:   1    -0.232124008281E+04    0.42272E-02   -0.38607E-01  4480   0.604E-01    0.197E-01
RMM:   2    -0.232124614412E+04   -0.60613E-02   -0.62560E-02  6168   0.128E-01    0.161E-01
RMM:   3    -0.232124661431E+04   -0.47019E-03   -0.68481E-03  5499   0.509E-02    0.144E-01
RMM:   4    -0.232124645874E+04    0.15557E-03   -0.73149E-04  3260   0.119E-02    0.620E-02
RMM:   5    -0.232124644300E+04    0.15739E-04   -0.12015E-04  2983   0.733E-03    0.540E-02
RMM:   6    -0.232124640422E+04    0.38781E-04   -0.99760E-05  3277   0.762E-03    0.194E-02
RMM:   7    -0.232124640265E+04    0.15731E-05   -0.22325E-05  2915   0.545E-03
  67 F= -.23421185E+04 E0= -.23421185E+04  d E =-.203627E-02  mag=     3.0000
       N       E                     dE             d eps       ncg     rms          rms(c)
DAV:   1    -0.232123646263E+04    0.99416E-02   -0.66806E-01  4468   0.796E-01    0.258E-01
RMM:   2    -0.232124692341E+04   -0.10461E-01   -0.10800E-01  6178   0.167E-01    0.207E-01
RMM:   3    -0.232124775644E+04   -0.83303E-03   -0.11798E-02  5677   0.676E-02    0.187E-01
RMM:   4    -0.232124748852E+04    0.26792E-03   -0.12581E-03  4079   0.154E-02    0.811E-02
RMM:   5    -0.232124746055E+04    0.27968E-04   -0.20345E-04  3201   0.901E-03    0.715E-02
RMM:   6    -0.232124739126E+04    0.69292E-04   -0.17618E-04  4018   0.947E-03    0.255E-02
RMM:   7    -0.232124738690E+04    0.43540E-05   -0.34243E-05  2944   0.608E-03
  68 F= -.23421194E+04 E0= -.23421194E+04  d E =-.293895E-02  mag=     3.0000
       N       E                     dE             d eps       ncg     rms          rms(c)
DAV:   1    -0.232123994875E+04    0.74425E-02   -0.54404E-01  4468   0.698E-01    0.232E-01
RMM:   2    -0.232124895251E+04   -0.90038E-02   -0.93193E-02  6248   0.149E-01    0.193E-01
RMM:   3    -0.232124973711E+04   -0.78460E-03   -0.10186E-02  5695   0.588E-02    0.183E-01
RMM:   4    -0.232124948682E+04    0.25029E-03   -0.10701E-03  3462   0.137E-02    0.648E-02
RMM:   5    -0.232124946247E+04    0.24352E-04   -0.14894E-04  3170   0.813E-03    0.558E-02
RMM:   6    -0.232124942976E+04    0.32709E-04   -0.12529E-04  3175   0.805E-03    0.296E-02
RMM:   7    -0.232124942230E+04    0.74584E-05   -0.30306E-05  2928   0.596E-03
  69 F= -.23421216E+04 E0= -.23421216E+04  d E =-.215565E-02  mag=     3.0000
       N       E                     dE             d eps       ncg     rms          rms(c)
DAV:   1    -0.232123072873E+04    0.18701E-01   -0.11214E+00  4456   0.100E+00    0.332E-01
RMM:   2    -0.232124926592E+04   -0.18537E-01   -0.19196E-01  6228   0.214E-01    0.271E-01
RMM:   3    -0.232125092463E+04   -0.16587E-02   -0.21093E-02  5883   0.838E-02    0.262E-01
RMM:   4    -0.232125040614E+04    0.51849E-03   -0.22085E-03  4681   0.193E-02    0.923E-02
RMM:   5    -0.232125035467E+04    0.51470E-04   -0.30315E-04  3966   0.104E-02    0.790E-02
RMM:   6    -0.232125029006E+04    0.64613E-04   -0.24970E-04  3889   0.993E-03    0.430E-02
RMM:   7    -0.232125027221E+04    0.17851E-04   -0.51905E-05  3013   0.670E-03    0.158E-02
RMM:   8    -0.232125026971E+04    0.25001E-05   -0.96441E-06  2880   0.448E-03
  70 F= -.23421226E+04 E0= -.23421226E+04  d E =-.317265E-02  mag=     3.0000
       N       E                     dE             d eps       ncg     rms          rms(c)
DAV:   1    -0.232124458245E+04    0.56898E-02   -0.39615E-01  4496   0.583E-01    0.196E-01
RMM:   2    -0.232125169332E+04   -0.71109E-02   -0.73476E-02  6283   0.127E-01    0.165E-01
RMM:   3    -0.232125233154E+04   -0.63823E-03   -0.80519E-03  5422   0.476E-02    0.154E-01
RMM:   4    -0.232125216106E+04    0.17048E-03   -0.80980E-04  3113   0.115E-02    0.539E-02
RMM:   5    -0.232125213124E+04    0.29824E-04   -0.93585E-05  3011   0.664E-03    0.360E-02
RMM:   6    -0.232125213138E+04   -0.14152E-06   -0.81936E-05  2942   0.672E-03
  71 F= -.23421246E+04 E0= -.23421246E+04  d E =-.198485E-02  mag=     3.0000
       N       E                     dE             d eps       ncg     rms          rms(c)
DAV:   1    -0.232118664256E+04    0.65489E-01   -0.35558E+00  4456   0.175E+00    0.583E-01
RMM:   2    -0.232124973543E+04   -0.63093E-01   -0.65736E-01  6246   0.378E-01    0.427E-01
RMM:   3    -0.232125626102E+04   -0.65256E-02   -0.74011E-02  5994   0.144E-01    0.457E-01
RMM:   4    -0.232125479257E+04    0.14685E-02   -0.72579E-03  5633   0.325E-02    0.163E-01
RMM:   5    -0.232125451937E+04    0.27320E-03   -0.74966E-04  4507   0.154E-02    0.104E-01
RMM:   6    -0.232125453419E+04   -0.14818E-04   -0.67944E-04  4738   0.157E-02    0.995E-02
RMM:   7    -0.232125440880E+04    0.12538E-03   -0.17628E-04  3894   0.943E-03    0.288E-02
RMM:   8    -0.232125439993E+04    0.88716E-05   -0.24279E-05  2907   0.512E-03
  72 F= -.23421272E+04 E0= -.23421272E+04  d E =-.461884E-02  mag=     3.0000
       N       E                     dE             d eps       ncg     rms          rms(c)
DAV:   1    -0.232124451787E+04    0.98909E-02   -0.63884E-01  4484   0.743E-01    0.262E-01
RMM:   2    -0.232125565552E+04   -0.11138E-01   -0.11620E-01  6212   0.165E-01    0.187E-01
RMM:   3    -0.232125676215E+04   -0.11066E-02   -0.12844E-02  5773   0.658E-02    0.198E-01
RMM:   4    -0.232125646933E+04    0.29282E-03   -0.13144E-03  3705   0.150E-02    0.721E-02
RMM:   5    -0.232125641321E+04    0.56122E-04   -0.18545E-04  3685   0.917E-03    0.454E-02
RMM:   6    -0.232125641118E+04    0.20256E-05   -0.13207E-04  3062   0.828E-03    0.406E-02
RMM:   7    -0.232125639096E+04    0.20223E-04   -0.35557E-05  2923   0.620E-03    0.137E-02
RMM:   8    -0.232125638919E+04    0.17682E-05   -0.79001E-06  2879   0.363E-03
  73 F= -.23421292E+04 E0= -.23421292E+04  d E =-.204440E-02  mag=     3.0000
       N       E                     dE             d eps       ncg     rms          rms(c)
DAV:   1    -0.232125092135E+04    0.54696E-02   -0.31310E-01  4528   0.520E-01    0.184E-01
RMM:   2    -0.232125641326E+04   -0.54919E-02   -0.57127E-02  6143   0.116E-01    0.136E-01
RMM:   3    -0.232125694067E+04   -0.52741E-03   -0.63231E-03  5382   0.455E-02    0.141E-01
RMM:   4    -0.232125678877E+04    0.15190E-03   -0.64678E-04  3101   0.107E-02    0.505E-02
RMM:   5    -0.232125676016E+04    0.28610E-04   -0.92100E-05  3096   0.677E-03    0.319E-02
RMM:   6    -0.232125675890E+04    0.12556E-05   -0.66714E-05  2916   0.650E-03
  74 F= -.23421296E+04 E0= -.23421296E+04  d E =-.245278E-02  mag=     3.0000
       N       E                     dE             d eps       ncg     rms          rms(c)
DAV:   1    -0.232124780294E+04    0.89572E-02   -0.57850E-01  4484   0.673E-01    0.240E-01
RMM:   2    -0.232125802506E+04   -0.10222E-01   -0.10713E-01  6240   0.151E-01    0.163E-01
RMM:   3    -0.232125908630E+04   -0.10612E-02   -0.12291E-02  5627   0.596E-02    0.166E-01
RMM:   4    -0.232125891601E+04    0.17028E-03   -0.12284E-03  3184   0.135E-02    0.772E-02
RMM:   5    -0.232125888859E+04    0.27417E-04   -0.16022E-04  3114   0.772E-03    0.612E-02
RMM:   6    -0.232125885154E+04    0.37053E-04   -0.13647E-04  3037   0.785E-03    0.309E-02
RMM:   7    -0.232125884379E+04    0.77566E-05   -0.35053E-05  2947   0.576E-03
  75 F= -.23421317E+04 E0= -.23421317E+04  d E =-.206577E-02  mag=     3.0000
       N       E                     dE             d eps       ncg     rms          rms(c)
DAV:   1    -0.232123816863E+04    0.20683E-01   -0.11392E+00  4484   0.944E-01    0.337E-01
RMM:   2    -0.232125839301E+04   -0.20224E-01   -0.21090E-01  6392   0.213E-01    0.254E-01
RMM:   3    -0.232126044178E+04   -0.20488E-02   -0.24112E-02  5873   0.822E-02    0.253E-01
RMM:   4    -0.232126000090E+04    0.44088E-03   -0.24294E-03  4219   0.193E-02    0.104E-01
RMM:   5    -0.232125996635E+04    0.34553E-04   -0.33688E-04  3815   0.103E-02    0.892E-02
RMM:   6    -0.232125987491E+04    0.91446E-04   -0.25469E-04  3705   0.985E-03    0.390E-02
RMM:   7    -0.232125986349E+04    0.11412E-04   -0.60036E-05  3007   0.653E-03    0.123E-02
RMM:   8    -0.232125986196E+04    0.15369E-05   -0.87949E-06  2882   0.440E-03
  76 F= -.23421327E+04 E0= -.23421327E+04  d E =-.305820E-02  mag=     3.0000
       N       E                     dE             d eps       ncg     rms          rms(c)
DAV:   1    -0.232125452460E+04    0.53389E-02   -0.40548E-01  4496   0.548E-01    0.193E-01
RMM:   2    -0.232126109982E+04   -0.65752E-02   -0.68622E-02  6318   0.122E-01    0.146E-01
RMM:   3    -0.232126173714E+04   -0.63732E-03   -0.78270E-03  5234   0.461E-02    0.140E-01
RMM:   4    -0.232126159949E+04    0.13765E-03   -0.79560E-04  3091   0.111E-02    0.628E-02
RMM:   5    -0.232126158350E+04    0.15988E-04   -0.12293E-04  3031   0.661E-03    0.529E-02
RMM:   6    -0.232126154942E+04    0.34082E-04   -0.96816E-05  2995   0.661E-03    0.225E-02
RMM:   7    -0.232126154641E+04    0.30170E-05   -0.23702E-05  2923   0.480E-03
  77 F= -.23421344E+04 E0= -.23421344E+04  d E =-.165849E-02  mag=     3.0000
       N       E                     dE             d eps       ncg     rms          rms(c)
DAV:   1    -0.232123263189E+04    0.28918E-01   -0.17382E+00  4472   0.113E+00    0.399E-01
RMM:   2    -0.232126072070E+04   -0.28089E-01   -0.29372E-01  6363   0.252E-01    0.290E-01
RMM:   3    -0.232126352387E+04   -0.28032E-02   -0.33825E-02  5891   0.976E-02    0.285E-01
RMM:   4    -0.232126296956E+04    0.55431E-03   -0.34199E-03  4770   0.224E-02    0.132E-01
RMM:   5    -0.232126290444E+04    0.65122E-04   -0.51480E-04  4250   0.116E-02    0.110E-01
RMM:   6    -0.232126275423E+04    0.15021E-03   -0.40369E-04  4216   0.114E-02    0.454E-02
RMM:   7    -0.232126273920E+04    0.15030E-04   -0.85789E-05  3111   0.691E-03    0.146E-02
RMM:   8    -0.232126273674E+04    0.24586E-05   -0.10570E-05  2893   0.443E-03
  78 F= -.23421355E+04 E0= -.23421355E+04  d E =-.279791E-02  mag=     3.0000
       N       E                     dE             d eps       ncg     rms          rms(c)
DAV:   1    -0.232125266264E+04    0.10077E-01   -0.74332E-01  4484   0.732E-01    0.257E-01
RMM:   2    -0.232126400571E+04   -0.11343E-01   -0.11809E-01  6305   0.164E-01    0.194E-01
RMM:   3    -0.232126510859E+04   -0.11029E-02   -0.13243E-02  5656   0.597E-02    0.193E-01
RMM:   4    -0.232126485423E+04    0.25436E-03   -0.13973E-03  3429   0.146E-02    0.842E-02
RMM:   5    -0.232126483167E+04    0.22564E-04   -0.21760E-04  3225   0.845E-03    0.719E-02
RMM:   6    -0.232126477147E+04    0.60197E-04   -0.17874E-04  3299   0.864E-03    0.300E-02
RMM:   7    -0.232126476612E+04    0.53534E-05   -0.36231E-05  2934   0.573E-03
  79 F= -.23421375E+04 E0= -.23421375E+04  d E =-.201654E-02  mag=     3.0000
       N       E                     dE             d eps       ncg     rms          rms(c)
DAV:   1    -0.232123683784E+04    0.27934E-01   -0.17717E+00  4472   0.113E+00    0.396E-01
RMM:   2    -0.232126386128E+04   -0.27023E-01   -0.28190E-01  6349   0.253E-01    0.290E-01
RMM:   3    -0.232126653160E+04   -0.26703E-02   -0.31855E-02  5897   0.956E-02    0.295E-01
RMM:   4    -0.232126594182E+04    0.58978E-03   -0.33667E-03  4799   0.225E-02    0.131E-01
RMM:   5    -0.232126589035E+04    0.51477E-04   -0.49350E-04  4229   0.118E-02    0.112E-01
RMM:   6    -0.232126574287E+04    0.14747E-03   -0.41170E-04  4346   0.116E-02    0.452E-02
RMM:   7    -0.232126572867E+04    0.14201E-04   -0.74304E-05  3021   0.679E-03    0.145E-02
RMM:   8    -0.232126572626E+04    0.24150E-05   -0.10150E-05  2896   0.424E-03
  80 F= -.23421385E+04 E0= -.23421385E+04  d E =-.296052E-02  mag=     3.0000
       N       E                     dE             d eps       ncg     rms          rms(c)
DAV:   1    -0.232124711666E+04    0.18612E-01   -0.12182E+00  4484   0.952E-01    0.342E-01
RMM:   2    -0.232126678925E+04   -0.19673E-01   -0.20561E-01  6330   0.219E-01    0.234E-01
RMM:   3    -0.232126883594E+04   -0.20467E-02   -0.22855E-02  5857   0.800E-02    0.256E-01
RMM:   4    -0.232126839123E+04    0.44472E-03   -0.23982E-03  4263   0.192E-02    0.106E-01
RMM:   5    -0.232126830880E+04    0.82429E-04   -0.35526E-04  4047   0.108E-02    0.719E-02
RMM:   6    -0.232126828190E+04    0.26900E-04   -0.26054E-04  3402   0.992E-03    0.523E-02
RMM:   7    -0.232126824977E+04    0.32128E-04   -0.55377E-05  2984   0.653E-03    0.149E-02
RMM:   8    -0.232126824751E+04    0.22586E-05   -0.10883E-05  2893   0.393E-03
  81 F= -.23421410E+04 E0= -.23421410E+04  d E =-.254370E-02  mag=     3.0000
       N       E                     dE             d eps       ncg     rms          rms(c)
DAV:   1    -0.232124691068E+04    0.21339E-01   -0.12763E+00  4484   0.974E-01    0.350E-01
RMM:   2    -0.232126752702E+04   -0.20616E-01   -0.21538E-01  6343   0.224E-01    0.241E-01
RMM:   3    -0.232126966887E+04   -0.21418E-02   -0.24030E-02  5876   0.820E-02    0.264E-01
RMM:   4    -0.232126919339E+04    0.47548E-03   -0.25432E-03  4377   0.196E-02    0.108E-01
RMM:   5    -0.232126910555E+04    0.87840E-04   -0.35262E-04  4090   0.110E-02    0.741E-02
RMM:   6    -0.232126907587E+04    0.29682E-04   -0.27162E-04  3451   0.101E-02    0.534E-02
RMM:   7    -0.232126904252E+04    0.33343E-04   -0.58596E-05  2992   0.658E-03    0.155E-02
RMM:   8    -0.232126904000E+04    0.25218E-05   -0.11426E-05  2896   0.401E-03
  82 F= -.23421418E+04 E0= -.23421418E+04  d E =-.336305E-02  mag=     3.0000
       N       E                     dE             d eps       ncg     rms          rms(c)
DAV:   1    -0.232124658942E+04    0.22453E-01   -0.13059E+00  4484   0.965E-01    0.362E-01
RMM:   2    -0.232127011553E+04   -0.23526E-01   -0.24581E-01  6401   0.231E-01    0.265E-01
RMM:   3    -0.232127249973E+04   -0.23842E-02   -0.27618E-02  5939   0.856E-02    0.275E-01
RMM:   4    -0.232127198840E+04    0.51133E-03   -0.28554E-03  4399   0.203E-02    0.110E-01
RMM:   5    -0.232127184907E+04    0.13933E-03   -0.34866E-04  4037   0.109E-02    0.529E-02
RMM:   6    -0.232127183558E+04    0.13495E-04   -0.16272E-04  3647   0.928E-03    0.318E-02
RMM:   7    -0.232127183238E+04    0.32000E-05   -0.40047E-05  2944   0.583E-03
  83 F= -.23421447E+04 E0= -.23421447E+04  d E =-.288883E-02  mag=     3.0000
       N       E                     dE             d eps       ncg     rms          rms(c)
DAV:   1    -0.232124477038E+04    0.27065E-01   -0.14493E+00  4484   0.101E+00    0.383E-01
RMM:   2    -0.232127080513E+04   -0.26035E-01   -0.27248E-01  6430   0.243E-01    0.276E-01
RMM:   3    -0.232127348878E+04   -0.26837E-02   -0.30809E-02  5962   0.918E-02    0.290E-01
RMM:   4    -0.232127292404E+04    0.56474E-03   -0.31756E-03  4551   0.216E-02    0.116E-01
RMM:   5    -0.232127277414E+04    0.14990E-03   -0.38044E-04  4093   0.114E-02    0.557E-02
RMM:   6    -0.232127276174E+04    0.12400E-04   -0.17577E-04  3723   0.965E-03    0.356E-02
RMM:   7    -0.232127275654E+04    0.52021E-05   -0.47882E-05  2934   0.597E-03
  84 F= -.23421457E+04 E0= -.23421457E+04  d E =-.391857E-02  mag=     3.0000
       N       E                     dE             d eps       ncg     rms          rms(c)
DAV:   1    -0.232124718187E+04    0.25580E-01   -0.14277E+00  4468   0.101E+00    0.395E-01
RMM:   2    -0.232127336393E+04   -0.26182E-01   -0.27244E-01  6398   0.246E-01    0.326E-01
RMM:   3    -0.232127582453E+04   -0.24606E-02   -0.30937E-02  6043   0.932E-02    0.314E-01
RMM:   4    -0.232127510634E+04    0.71819E-03   -0.31028E-03  4900   0.224E-02    0.110E-01
RMM:   5    -0.232127497821E+04    0.12812E-03   -0.41751E-04  4088   0.117E-02    0.536E-02
RMM:   6    -0.232127496552E+04    0.12696E-04   -0.13874E-04  3654   0.963E-03    0.294E-02
RMM:   7    -0.232127496267E+04    0.28425E-05   -0.32758E-05  2922   0.569E-03
  85 F= -.23421483E+04 E0= -.23421483E+04  d E =-.252414E-02  mag=     3.0000
       N       E                     dE             d eps       ncg     rms          rms(c)
DAV:   1    -0.232125354460E+04    0.21421E-01   -0.10942E+00  4496   0.887E-01    0.346E-01
RMM:   2    -0.232127350531E+04   -0.19961E-01   -0.20761E-01  6367   0.214E-01    0.289E-01
RMM:   3    -0.232127531674E+04   -0.18114E-02   -0.23297E-02  5992   0.820E-02    0.275E-01
RMM:   4    -0.232127476407E+04    0.55267E-03   -0.24048E-03  4517   0.198E-02    0.955E-02
RMM:   5    -0.232127466253E+04    0.10154E-03   -0.32852E-04  3952   0.107E-02    0.458E-02
RMM:   6    -0.232127465166E+04    0.10868E-04   -0.10618E-04  3357   0.868E-03    0.232E-02
RMM:   7    -0.232127464790E+04    0.37655E-05   -0.17918E-05  2921   0.532E-03
  86 F= -.23421482E+04 E0= -.23421482E+04  d E =-.249007E-02  mag=     3.0000
       N       E                     dE             d eps       ncg     rms          rms(c)
DAV:   1    -0.232127020385E+04    0.44478E-02   -0.25317E-01  4496   0.427E-01    0.165E-01
RMM:   2    -0.232127479835E+04   -0.45945E-02   -0.47814E-02  6343   0.104E-01    0.135E-01
RMM:   3    -0.232127522188E+04   -0.42352E-03   -0.54412E-03  4937   0.382E-02    0.130E-01
RMM:   4    -0.232127509605E+04    0.12583E-03   -0.55671E-04  3054   0.998E-03    0.480E-02
RMM:   5    -0.232127507059E+04    0.25462E-04   -0.79767E-05  2950   0.612E-03    0.247E-02
RMM:   6    -0.232127506938E+04    0.12089E-05   -0.37396E-05  2933   0.503E-03
  87 F= -.23421485E+04 E0= -.23421485E+04  d E =-.277632E-02  mag=     3.0000
       N       E                     dE             d eps       ncg     rms          rms(c)
DAV:   1    -0.232125071559E+04    0.24355E-01   -0.14142E+00  4468   0.101E+00    0.383E-01
RMM:   2    -0.232127580141E+04   -0.25086E-01   -0.25678E-01  6446   0.238E-01    0.375E-01
RMM:   3    -0.232127752987E+04   -0.17285E-02   -0.28592E-02  6093   0.889E-02    0.288E-01
RMM:   4    -0.232127688446E+04    0.64542E-03   -0.28825E-03  4957   0.213E-02    0.103E-01
RMM:   5    -0.232127674099E+04    0.14346E-03   -0.35572E-04  4163   0.113E-02    0.549E-02
RMM:   6    -0.232127676551E+04   -0.24514E-04   -0.24338E-04  3387   0.105E-02    0.590E-02
RMM:   7    -0.232127671872E+04    0.46790E-04   -0.60664E-05  2938   0.636E-03    0.143E-02
RMM:   8    -0.232127671644E+04    0.22726E-05   -0.10767E-05  2896   0.344E-03
  88 F= -.23421504E+04 E0= -.23421504E+04  d E =-.192141E-02  mag=     3.0000
       N       E                     dE             d eps       ncg     rms          rms(c)
DAV:   1    -0.232127461371E+04    0.21050E-02   -0.11401E-01  4560   0.286E-01    0.110E-01
[...]
DAV:   1    -0.232131597664E+04    0.37087E-04   -0.93270E-02  4456   0.274E-01    0.892E-02
RMM:   2    -0.232131655341E+04   -0.57677E-03   -0.62117E-03  6191   0.519E-02    0.644E-02
RMM:   3    -0.232131659526E+04   -0.41844E-04   -0.64082E-04  3612   0.194E-02    0.751E-02
RMM:   4    -0.232131654743E+04    0.47830E-04   -0.83058E-05  2962   0.676E-03    0.269E-02
RMM:   5    -0.232131654621E+04    0.12114E-05   -0.45947E-05  2944   0.546E-03
 169 F= -.23421958E+04 E0= -.23421958E+04  d E =-.517528E-03  mag=     3.0000
       N       E                     dE             d eps       ncg     rms          rms(c)
DAV:   1    -0.232131578756E+04    0.75987E-03   -0.15657E-01  4456   0.354E-01    0.116E-01
RMM:   2    -0.232131675608E+04   -0.96852E-03   -0.10406E-02  6202   0.672E-02    0.844E-02
RMM:   3    -0.232131682645E+04   -0.70366E-04   -0.11035E-03  4222   0.255E-02    0.952E-02
RMM:   4    -0.232131674476E+04    0.81686E-04   -0.13657E-04  3036   0.814E-03    0.359E-02
RMM:   5    -0.232131675114E+04   -0.63770E-05   -0.87063E-05  3041   0.685E-03
 170 F= -.23421960E+04 E0= -.23421960E+04  d E =-.709233E-03  mag=     3.0000
       N       E                     dE             d eps       ncg     rms          rms(c)
DAV:   1    -0.232131644647E+04    0.29829E-03   -0.15509E-01  4456   0.354E-01    0.123E-01
RMM:   2    -0.232131737402E+04   -0.92755E-03   -0.99362E-03  6205   0.677E-02    0.873E-02
RMM:   3    -0.232131746496E+04   -0.90943E-04   -0.11247E-03  4538   0.261E-02    0.106E-01
RMM:   4    -0.232131736339E+04    0.10157E-03   -0.13801E-04  3066   0.808E-03    0.335E-02
RMM:   5    -0.232131736414E+04   -0.75281E-06   -0.80092E-05  3053   0.676E-03
 171 F= -.23421965E+04 E0= -.23421965E+04  d E =-.577209E-03  mag=     3.0000
       N       E                     dE             d eps       ncg     rms          rms(c)
DAV:   1    -0.232131698753E+04    0.37586E-03   -0.75188E-02  4544   0.247E-01    0.864E-02
RMM:   2    -0.232131744304E+04   -0.45551E-03   -0.48572E-03  6256   0.484E-02    0.613E-02
RMM:   3    -0.232131748509E+04   -0.42051E-04   -0.56889E-04  3544   0.180E-02    0.705E-02
RMM:   4    -0.232131743726E+04    0.47832E-04   -0.66015E-05  2960   0.646E-03    0.247E-02
RMM:   5    -0.232131744139E+04   -0.41285E-05   -0.46294E-05  2900   0.492E-03
 172 F= -.23421966E+04 E0= -.23421966E+04  d E =-.629951E-03  mag=     3.0000
       N       E                     dE             d eps       ncg     rms          rms(c)
DAV:   1    -0.232131706597E+04    0.37129E-03   -0.15092E-01  4440   0.321E-01    0.111E-01
RMM:   2    -0.232131806765E+04   -0.10017E-02   -0.10695E-02  6232   0.633E-02    0.848E-02
RMM:   3    -0.232131815242E+04   -0.84763E-04   -0.11275E-03  4046   0.235E-02    0.940E-02
RMM:   4    -0.232131807605E+04    0.76371E-04   -0.13990E-04  3031   0.779E-03    0.343E-02
RMM:   5    -0.232131807349E+04    0.25584E-05   -0.74847E-05  3087   0.666E-03
 173 F= -.23421972E+04 E0= -.23421972E+04  d E =-.561484E-03  mag=     3.0000
       N       E                     dE             d eps       ncg     rms          rms(c)
DAV:   1    -0.232131762570E+04    0.45035E-03   -0.85129E-02  4464   0.241E-01    0.843E-02
RMM:   2    -0.232131820409E+04   -0.57839E-03   -0.61291E-03  6323   0.496E-02    0.660E-02
RMM:   3    -0.232131824582E+04   -0.41731E-04   -0.70435E-04  3453   0.180E-02    0.659E-02
RMM:   4    -0.232131820483E+04    0.40992E-04   -0.78837E-05  2971   0.645E-03    0.267E-02
RMM:   5    -0.232131820986E+04   -0.50266E-05   -0.51332E-05  2928   0.521E-03
 174 F= -.23421972E+04 E0= -.23421972E+04  d E =-.645485E-03  mag=     3.0000
       N       E                     dE             d eps       ncg     rms          rms(c)
DAV:   1    -0.232131766972E+04    0.53511E-03   -0.20149E-01  4440   0.373E-01    0.135E-01
RMM:   2    -0.232131897500E+04   -0.13053E-02   -0.14229E-02  6133   0.738E-02    0.890E-02
RMM:   3    -0.232131910189E+04   -0.12689E-03   -0.15039E-03  4626   0.293E-02    0.113E-01
RMM:   4    -0.232131899143E+04    0.11046E-03   -0.19598E-04  3186   0.871E-03    0.404E-02
RMM:   5    -0.232131898903E+04    0.24002E-05   -0.10037E-04  3249   0.742E-03    0.374E-02
RMM:   6    -0.232131897426E+04    0.14767E-04   -0.38528E-05  2923   0.598E-03    0.147E-02
RMM:   7    -0.232131897181E+04    0.24483E-05   -0.74977E-06  2859   0.318E-03
 175 F= -.23421979E+04 E0= -.23421979E+04  d E =-.666846E-03  mag=     3.0000
       N       E                     dE             d eps       ncg     rms          rms(c)
DAV:   1    -0.232131886527E+04    0.10900E-03   -0.29310E-02  4624   0.142E-01    0.518E-02
RMM:   2    -0.232131905804E+04   -0.19277E-03   -0.20811E-03  6008   0.287E-02    0.359E-02
RMM:   3    -0.232131907742E+04   -0.19383E-04   -0.21180E-04  3026   0.115E-02    0.471E-02
RMM:   4    -0.232131905809E+04    0.19334E-04   -0.30293E-05  2913   0.404E-03    0.150E-02
RMM:   5    -0.232131905623E+04    0.18534E-05   -0.14403E-05  2901   0.298E-03
 176 F= -.23421980E+04 E0= -.23421980E+04  d E =-.715428E-03  mag=     3.0000
       N       E                     dE             d eps       ncg     rms          rms(c)
DAV:   1    -0.232131870569E+04    0.35240E-03   -0.17104E-01  4456   0.338E-01    0.122E-01
RMM:   2    -0.232131980148E+04   -0.10958E-02   -0.12036E-02  6048   0.667E-02    0.783E-02
RMM:   3    -0.232131990031E+04   -0.98826E-04   -0.12249E-03  4305   0.262E-02    0.981E-02
RMM:   4    -0.232131981895E+04    0.81358E-04   -0.16393E-04  3052   0.812E-03    0.406E-02
RMM:   5    -0.232131982311E+04   -0.41603E-05   -0.94107E-05  3068   0.686E-03
 177 F= -.23421986E+04 E0= -.23421986E+04  d E =-.698385E-03  mag=     3.0000
       N       E                     dE             d eps       ncg     rms          rms(c)
DAV:   1    -0.232131952843E+04    0.29052E-03   -0.53695E-02  4512   0.190E-01    0.692E-02
RMM:   2    -0.232131988346E+04   -0.35503E-03   -0.38868E-03  6236   0.405E-02    0.461E-02
RMM:   3    -0.232131991808E+04   -0.34616E-04   -0.46439E-04  3203   0.150E-02    0.535E-02
RMM:   4    -0.232131989076E+04    0.27320E-04   -0.53507E-05  2939   0.551E-03    0.220E-02
RMM:   5    -0.232131989361E+04   -0.28471E-05   -0.35257E-05  2904   0.428E-03
 178 F= -.23421987E+04 E0= -.23421987E+04  d E =-.730761E-03  mag=     3.0000
       N       E                     dE             d eps       ncg     rms          rms(c)
DAV:   1    -0.232131946400E+04    0.42676E-03   -0.15244E-01  4456   0.316E-01    0.112E-01
RMM:   2    -0.232132048443E+04   -0.10204E-02   -0.11135E-02  6157   0.626E-02    0.720E-02
RMM:   3    -0.232132057511E+04   -0.90688E-04   -0.11375E-03  4052   0.241E-02    0.863E-02
RMM:   4    -0.232132051399E+04    0.61128E-04   -0.14260E-04  3006   0.753E-03    0.369E-02
RMM:   5    -0.232132051523E+04   -0.12434E-05   -0.78214E-05  2979   0.620E-03
 179 F= -.23421992E+04 E0= -.23421992E+04  d E =-.556816E-03  mag=     3.0000
       N       E                     dE             d eps       ncg     rms          rms(c)
DAV:   1    -0.232131986167E+04    0.65231E-03   -0.11153E-01  4480   0.271E-01    0.967E-02
RMM:   2    -0.232132062254E+04   -0.76087E-03   -0.82298E-03  6284   0.555E-02    0.676E-02
RMM:   3    -0.232132069137E+04   -0.68830E-04   -0.93604E-04  3610   0.204E-02    0.755E-02
RMM:   4    -0.232132063826E+04    0.53119E-04   -0.10698E-04  2985   0.704E-03    0.306E-02
RMM:   5    -0.232132064441E+04   -0.61539E-05   -0.64530E-05  2939   0.552E-03
 180 F= -.23421993E+04 E0= -.23421993E+04  d E =-.631245E-03  mag=     3.0000
       N       E                     dE             d eps       ncg     rms          rms(c)
DAV:   1    -0.232132004384E+04    0.59441E-03   -0.18677E-01  4456   0.358E-01    0.126E-01
RMM:   2    -0.232132129033E+04   -0.12465E-02   -0.13532E-02  6177   0.707E-02    0.833E-02
RMM:   3    -0.232132140881E+04   -0.11848E-03   -0.14517E-03  4371   0.275E-02    0.102E-01
RMM:   4    -0.232132132249E+04    0.86316E-04   -0.17763E-04  3059   0.829E-03    0.391E-02
RMM:   5    -0.232132131994E+04    0.25464E-05   -0.88293E-05  3102   0.694E-03
 181 F= -.23421999E+04 E0= -.23421999E+04  d E =-.629445E-03  mag=     3.0000
       N       E                     dE             d eps       ncg     rms          rms(c)
DAV:   1    -0.232132073666E+04    0.58583E-03   -0.99178E-02  4480   0.260E-01    0.926E-02
RMM:   2    -0.232132141301E+04   -0.67636E-03   -0.72745E-03  6286   0.532E-02    0.666E-02
RMM:   3    -0.232132147183E+04   -0.58813E-04   -0.85110E-04  3549   0.199E-02    0.718E-02
RMM:   4    -0.232132142142E+04    0.50402E-04   -0.95316E-05  2972   0.687E-03    0.282E-02
RMM:   5    -0.232132142691E+04   -0.54892E-05   -0.55322E-05  2926   0.539E-03
 182 F= -.23422000E+04 E0= -.23422000E+04  d E =-.703621E-03  mag=     3.0000
       N       E                     dE             d eps       ncg     rms          rms(c)
DAV:   1    -0.232132063060E+04    0.79082E-03   -0.23772E-01  4456   0.402E-01    0.143E-01
RMM:   2    -0.232132215490E+04   -0.15243E-02   -0.16501E-02  6181   0.785E-02    0.100E-01
RMM:   3    -0.232132229976E+04   -0.14486E-03   -0.17206E-03  4782   0.302E-02    0.123E-01
RMM:   4    -0.232132217284E+04    0.12691E-03   -0.23090E-04  3238   0.920E-03    0.428E-02
RMM:   5    -0.232132215822E+04    0.14627E-04   -0.10459E-04  3469   0.787E-03    0.250E-02
RMM:   6    -0.232132215780E+04    0.41336E-06   -0.32900E-05  2915   0.591E-03
 183 F= -.23422007E+04 E0= -.23422007E+04  d E =-.707301E-03  mag=     3.0000
       N       E                     dE             d eps       ncg     rms          rms(c)
DAV:   1    -0.232132194121E+04    0.21700E-03   -0.40237E-02  4576   0.165E-01    0.592E-02
RMM:   2    -0.232132220202E+04   -0.26080E-03   -0.28318E-03  6106   0.329E-02    0.347E-02
RMM:   3    -0.232132222399E+04   -0.21973E-04   -0.28786E-04  3044   0.124E-02    0.441E-02
RMM:   4    -0.232132220999E+04    0.13999E-04   -0.38605E-05  2908   0.421E-03    0.210E-02
RMM:   5    -0.232132220551E+04    0.44768E-05   -0.16419E-05  2883   0.318E-03
 184 F= -.23422008E+04 E0= -.23422008E+04  d E =-.745743E-03  mag=     3.0000
       N       E                     dE             d eps       ncg     rms          rms(c)
DAV:   1    -0.232132172561E+04    0.48438E-03   -0.21136E-01  4440   0.389E-01    0.143E-01
RMM:   2    -0.232132293283E+04   -0.12072E-02   -0.13240E-02  6017   0.730E-02    0.943E-02
RMM:   3    -0.232132305871E+04   -0.12587E-03   -0.13931E-03  4779   0.292E-02    0.128E-01
RMM:   4    -0.232132291190E+04    0.14680E-03   -0.20057E-04  3271   0.893E-03    0.393E-02
RMM:   5    -0.232132289390E+04    0.17999E-04   -0.10086E-04  3609   0.758E-03    0.118E-02
RMM:   6    -0.232132289406E+04   -0.15383E-06   -0.12809E-05  2908   0.537E-03
 185 F= -.23422014E+04 E0= -.23422014E+04  d E =-.667160E-03  mag=     3.0000
       N       E                     dE             d eps       ncg     rms          rms(c)
DAV:   1    -0.232132282732E+04    0.66583E-04   -0.16741E-02  4704   0.110E-01    0.411E-02
RMM:   2    -0.232132292739E+04   -0.10007E-03   -0.10655E-03  5877   0.214E-02    0.290E-02
RMM:   3    -0.232132293634E+04   -0.89494E-05   -0.11626E-04  2931   0.885E-03    0.349E-02
RMM:   4    -0.232132292430E+04    0.12041E-04   -0.16081E-05  2878   0.323E-03    0.126E-02
RMM:   5    -0.232132292521E+04   -0.91306E-06   -0.10199E-05  2851   0.234E-03
 186 F= -.23422015E+04 E0= -.23422015E+04  d E =-.692512E-03  mag=     3.0000
       N       E                     dE             d eps       ncg     rms          rms(c)
DAV:   1    -0.232132269795E+04    0.22634E-03   -0.15814E-01  4456   0.342E-01    0.122E-01
RMM:   2    -0.232132348735E+04   -0.78939E-03   -0.88869E-03  5903   0.626E-02    0.748E-02
RMM:   3    -0.232132356946E+04   -0.82111E-04   -0.89804E-04  4404   0.259E-02    0.105E-01
RMM:   4    -0.232132347585E+04    0.93608E-04   -0.14315E-04  3094   0.793E-03    0.352E-02
RMM:   5    -0.232132346337E+04    0.12476E-04   -0.73448E-05  3293   0.664E-03    0.161E-02
RMM:   6    -0.232132346406E+04   -0.68989E-06   -0.19717E-05  2897   0.550E-03
 187 F= -.23422020E+04 E0= -.23422020E+04  d E =-.544623E-03  mag=     3.0000
       N       E                     dE             d eps       ncg     rms          rms(c)
DAV:   1    -0.232132341720E+04    0.46168E-04   -0.97805E-03  4768   0.852E-02    0.310E-02
RMM:   2    -0.232132346901E+04   -0.51807E-04   -0.57430E-04  5434   0.167E-02    0.168E-02
RMM:   3    -0.232132347288E+04   -0.38733E-05   -0.61024E-05  2893   0.737E-03
 188 F= -.23422020E+04 E0= -.23422020E+04  d E =-.555048E-03  mag=     3.0000
       N       E                     dE             d eps       ncg     rms          rms(c)
DAV:   1    -0.232132325473E+04    0.21428E-03   -0.14497E-01  4456   0.329E-01    0.121E-01
RMM:   2    -0.232132389570E+04   -0.64096E-03   -0.74896E-03  5880   0.589E-02    0.617E-02
RMM:   3    -0.232132391489E+04   -0.19199E-04   -0.72778E-04  4260   0.246E-02    0.595E-02
RMM:   4    -0.232132389897E+04    0.15919E-04   -0.12344E-04  3082   0.741E-03    0.449E-02
RMM:   5    -0.232132388684E+04    0.12134E-04   -0.68344E-05  3043   0.649E-03    0.300E-02
RMM:   6    -0.232132388034E+04    0.64964E-05   -0.22545E-05  2894   0.524E-03
 189 F= -.23422025E+04 E0= -.23422025E+04  d E =-.485782E-03  mag=     3.0000
       N       E                     dE             d eps       ncg     rms          rms(c)
DAV:   1    -0.232132383349E+04    0.53347E-04   -0.64829E-03  4872   0.698E-02    0.259E-02
RMM:   2    -0.232132386469E+04   -0.31192E-04   -0.34960E-04  4842   0.136E-02    0.130E-02
RMM:   3    -0.232132386611E+04   -0.14236E-05   -0.35215E-05  2877   0.660E-03
 190 F= -.23422025E+04 E0= -.23422025E+04  d E =-.488344E-03  mag=     3.0000
       N       E                     dE             d eps       ncg     rms          rms(c)
DAV:   1    -0.232132372377E+04    0.14092E-03   -0.13444E-01  4456   0.317E-01    0.111E-01
RMM:   2    -0.232132431794E+04   -0.59417E-03   -0.67599E-03  5864   0.563E-02    0.716E-02
RMM:   3    -0.232132437914E+04   -0.61203E-04   -0.76473E-04  4119   0.234E-02    0.981E-02
RMM:   4    -0.232132429604E+04    0.83103E-04   -0.11794E-04  3072   0.749E-03    0.348E-02
RMM:   5    -0.232132429707E+04   -0.10317E-05   -0.73504E-05  3101   0.624E-03
 191 F= -.23422030E+04 E0= -.23422030E+04  d E =-.498024E-03  mag=     3.0000
       N       E                     dE             d eps       ncg     rms          rms(c)
DAV:   1    -0.232132415199E+04    0.14404E-03   -0.27035E-02  4544   0.143E-01    0.497E-02
RMM:   2    -0.232132428309E+04   -0.13110E-03   -0.14612E-03  5961   0.285E-02    0.306E-02
RMM:   3    -0.232132429316E+04   -0.10067E-04   -0.18050E-04  3048   0.113E-02    0.347E-02
RMM:   4    -0.232132427791E+04    0.15249E-04   -0.22639E-05  2887   0.439E-03    0.129E-02
RMM:   5    -0.232132427553E+04    0.23832E-05   -0.15657E-05  2909   0.311E-03
 192 F= -.23422030E+04 E0= -.23422030E+04  d E =-.507167E-03  mag=     3.0000
       N       E                     dE             d eps       ncg     rms          rms(c)
DAV:   1    -0.232132420985E+04    0.68057E-04   -0.12886E-01  4456   0.311E-01    0.107E-01
RMM:   2    -0.232132477380E+04   -0.56395E-03   -0.64404E-03  5964   0.553E-02    0.551E-02
RMM:   3    -0.232132479216E+04   -0.18354E-04   -0.61865E-04  4020   0.230E-02    0.571E-02
RMM:   4    -0.232132477106E+04    0.21099E-04   -0.95690E-05  2966   0.684E-03    0.397E-02
RMM:   5    -0.232132476652E+04    0.45329E-05   -0.60265E-05  2971   0.563E-03
 193 F= -.23422035E+04 E0= -.23422035E+04  d E =-.506017E-03  mag=     3.0000
       N       E                     dE             d eps       ncg     rms          rms(c)
DAV:   1    -0.232132445721E+04    0.31384E-03   -0.78745E-02  4456   0.243E-01    0.847E-02
RMM:   2    -0.232132482028E+04   -0.36307E-03   -0.40642E-03  6173   0.456E-02    0.485E-02
RMM:   3    -0.232132484454E+04   -0.24257E-04   -0.45556E-04  3510   0.175E-02    0.545E-02
RMM:   4    -0.232132480851E+04    0.36031E-04   -0.61233E-05  2928   0.626E-03    0.219E-02
RMM:   5    -0.232132480211E+04    0.63992E-05   -0.37593E-05  2983   0.471E-03
 194 F= -.23422036E+04 E0= -.23422036E+04  d E =-.553966E-03  mag=     3.0000
       N       E                     dE             d eps       ncg     rms          rms(c)
DAV:   1    -0.232132482290E+04   -0.14396E-04   -0.11044E-01  4472   0.277E-01    0.944E-02
RMM:   2    -0.232132529993E+04   -0.47703E-03   -0.54095E-03  6149   0.510E-02    0.505E-02
RMM:   3    -0.232132531216E+04   -0.12227E-04   -0.50963E-04  3692   0.195E-02    0.448E-02
RMM:   4    -0.232132530209E+04    0.10069E-04   -0.80414E-05  2934   0.636E-03    0.354E-02
RMM:   5    -0.232132529561E+04    0.64787E-05   -0.48089E-05  2963   0.517E-03
 195 F= -.23422041E+04 E0= -.23422041E+04  d E =-.501888E-03  mag=     3.0000
       N       E                     dE             d eps       ncg     rms          rms(c)
DAV:   1    -0.232132482018E+04    0.48191E-03   -0.13630E-01  4472   0.308E-01    0.106E-01
RMM:   2    -0.232132543229E+04   -0.61211E-03   -0.67517E-03  6098   0.566E-02    0.729E-02
RMM:   3    -0.232132548920E+04   -0.56915E-04   -0.77894E-04  3917   0.230E-02    0.942E-02
RMM:   4    -0.232132541056E+04    0.78638E-04   -0.11217E-04  2994   0.762E-03    0.354E-02
RMM:   5    -0.232132541923E+04   -0.86712E-05   -0.71019E-05  2951   0.586E-03
 196 F= -.23422042E+04 E0= -.23422042E+04  d E =-.635822E-03  mag=     3.0000
       N       E                     dE             d eps       ncg     rms          rms(c)
DAV:   1    -0.232132530093E+04    0.10963E-03   -0.16713E-01  4472   0.343E-01    0.121E-01
RMM:   2    -0.232132596379E+04   -0.66287E-03   -0.76175E-03  6086   0.616E-02    0.689E-02
RMM:   3    -0.232132602272E+04   -0.58926E-04   -0.83411E-04  4449   0.252E-02    0.924E-02
RMM:   4    -0.232132595329E+04    0.69429E-04   -0.12451E-04  3036   0.772E-03    0.371E-02
RMM:   5    -0.232132595027E+04    0.30169E-05   -0.75209E-05  3071   0.659E-03
 197 F= -.23422048E+04 E0= -.23422048E+04  d E =-.558988E-03  mag=     3.0000
       N       E                     dE             d eps       ncg     rms          rms(c)
DAV:   1    -0.232132570974E+04    0.24355E-03   -0.68087E-02  4496   0.219E-01    0.780E-02
RMM:   2    -0.232132599753E+04   -0.28779E-03   -0.31974E-03  6132   0.415E-02    0.502E-02
RMM:   3    -0.232132601993E+04   -0.22398E-04   -0.36772E-04  3387   0.155E-02    0.593E-02
RMM:   4    -0.232132598269E+04    0.37245E-04   -0.52038E-05  2931   0.604E-03    0.231E-02
RMM:   5    -0.232132598904E+04   -0.63589E-05   -0.39542E-05  2908   0.453E-03
 198 F= -.23422048E+04 E0= -.23422048E+04  d E =-.616147E-03  mag=     3.0000
       N       E                     dE             d eps       ncg     rms          rms(c)
DAV:   1    -0.232132579476E+04    0.18793E-03   -0.18833E-01  4472   0.352E-01    0.127E-01
RMM:   2    -0.232132658907E+04   -0.79431E-03   -0.88922E-03  6028   0.643E-02    0.861E-02
RMM:   3    -0.232132666527E+04   -0.76201E-04   -0.91679E-04  4491   0.259E-02    0.114E-01
RMM:   4    -0.232132655226E+04    0.11301E-03   -0.15649E-04  3182   0.831E-03    0.364E-02
RMM:   5    -0.232132655297E+04   -0.70417E-06   -0.91149E-05  3137   0.710E-03
 199 F= -.23422054E+04 E0= -.23422054E+04  d E =-.551992E-03  mag=     3.0000
       N       E                     dE             d eps       ncg     rms          rms(c)
DAV:   1    -0.232132640459E+04    0.14767E-03   -0.37527E-02  4560   0.158E-01    0.580E-02
RMM:   2    -0.232132657805E+04   -0.17346E-03   -0.18558E-03  6069   0.312E-02    0.433E-02
RMM:   3    -0.232132658671E+04   -0.86653E-05   -0.21148E-04  3090   0.116E-02    0.457E-02
RMM:   4    -0.232132656563E+04    0.21080E-04   -0.29101E-05  2906   0.477E-03    0.184E-02
RMM:   5    -0.232132656971E+04   -0.40793E-05   -0.23663E-05  2879   0.343E-03
 200 F= -.23422054E+04 E0= -.23422054E+04  d E =-.563786E-03  mag=     3.0000
