       N       E                     dE             d eps       ncg     rms          rms(c)
DAV:   1     0.124781889602E+05    0.12478E+05   -0.82544E+05  4500   0.141E+03
DAV:   2    -0.113727318645E+04   -0.13615E+05   -0.13041E+05  5280   0.324E+02
DAV:   3    -0.247571324272E+04   -0.13384E+04   -0.13274E+04  5430   0.106E+02
DAV:   4    -0.250956233148E+04   -0.33849E+02   -0.33703E+02  5940   0.230E+01
DAV:   5    -0.251044627180E+04   -0.88394E+00   -0.88238E+00  5550   0.291E+00    0.170E+02
RMM:   6    -0.146715392584E+04    0.10433E+04   -0.19104E+03  4452   0.379E+01    0.727E+01
RMM:   7    -0.164675340449E+04   -0.17960E+03   -0.26574E+02  4989   0.135E+01    0.519E+01
RMM:   8    -0.170084252251E+04   -0.54089E+02   -0.77041E+01  5072   0.817E+00    0.436E+01
RMM:   9    -0.176928213343E+04   -0.68440E+02   -0.65467E+01  4945   0.747E+00    0.363E+01
RMM:  10    -0.191708920910E+04   -0.14781E+03   -0.63649E+01  5134   0.744E+00    0.216E+01
RMM:  11    -0.200636605708E+04   -0.89277E+02   -0.40172E+01  5027   0.520E+00    0.160E+01
RMM:  12    -0.210284801221E+04   -0.96482E+02   -0.45307E+01  4535   0.501E+00    0.122E+01
RMM:  13    -0.223481443896E+04   -0.13197E+03   -0.11299E+02  4460   0.746E+00    0.116E+01
RMM:  14    -0.226901158357E+04   -0.34197E+02   -0.26562E+01  4543   0.434E+00    0.644E+00
RMM:  15    -0.229647931075E+04   -0.27468E+02   -0.24464E+01  4450   0.335E+00    0.349E+00
RMM:  16    -0.230286101687E+04   -0.63817E+01   -0.61529E+00  4502   0.232E+00    0.251E+00
RMM:  17    -0.230641742915E+04   -0.35564E+01   -0.39725E+00  4719   0.106E+00    0.172E+00
RMM:  18    -0.230722224763E+04   -0.80482E+00   -0.81377E-01  4718   0.861E-01    0.137E+00
RMM:  19    -0.230742817511E+04   -0.20593E+00   -0.28378E-01  4716   0.276E-01    0.137E+00
RMM:  20    -0.230749347205E+04   -0.65297E-01   -0.54094E-02  4759   0.204E-01    0.113E+00
RMM:  21    -0.230753941264E+04   -0.45941E-01   -0.35653E-02  4493   0.112E-01    0.656E-01
RMM:  22    -0.230756993630E+04   -0.30524E-01   -0.21627E-02  4636   0.978E-02    0.433E-01
RMM:  23    -0.230758055649E+04   -0.10620E-01   -0.62877E-03  4791   0.604E-02    0.405E-01
RMM:  24    -0.230759106556E+04   -0.10509E-01   -0.65479E-03  4557   0.479E-02    0.156E-01
RMM:  25    -0.230759625856E+04   -0.51930E-02   -0.30866E-03  4671   0.391E-02    0.743E-02
RMM:  26    -0.230759803722E+04   -0.17787E-02   -0.15059E-03  4382   0.224E-02    0.390E-02
RMM:  27    -0.230759853523E+04   -0.49801E-03   -0.24547E-04  3983   0.127E-02    0.409E-02
RMM:  28    -0.230759883113E+04   -0.29591E-03   -0.86277E-05  3653   0.702E-03    0.226E-02
RMM:  29    -0.230759905357E+04   -0.22244E-03   -0.57935E-05  3461   0.591E-03    0.750E-03
RMM:  30    -0.230759912980E+04   -0.76230E-04   -0.18777E-05  2982   0.433E-03    0.481E-03
RMM:  31    -0.230759916728E+04   -0.37480E-04   -0.95953E-06  2908   0.307E-03    0.274E-03
RMM:  32    -0.230759917874E+04   -0.11452E-04   -0.43691E-06  2777   0.263E-03    0.180E-03
RMM:  33    -0.230759918225E+04   -0.35123E-05   -0.22552E-06  2484   0.176E-03
   1 F= -.23280727E+04 E0= -.23280727E+04  d E =-.400006E-07  mag=     5.9998
       N       E                     dE             d eps       ncg     rms          rms(c)
DAV:   1    -0.230761190334E+04   -0.12725E-01   -0.21061E+00  4320   0.731E-01    0.277E-01
RMM:   2    -0.230761187135E+04    0.31986E-04   -0.10554E-02  3678   0.501E-02    0.172E-01
RMM:   3    -0.230761177176E+04    0.99593E-04   -0.20765E-03  4060   0.283E-02    0.261E-01
RMM:   4    -0.230761147815E+04    0.29361E-03   -0.11005E-03  4024   0.125E-02    0.118E-01
RMM:   5    -0.230761145264E+04    0.25504E-04   -0.18889E-04  3274   0.974E-03    0.195E-02
RMM:   6    -0.230761144621E+04    0.64365E-05   -0.23517E-05  2642   0.349E-03
   2 F= -.23280856E+04 E0= -.23280856E+04  d E =-.298008E-07  mag=     5.9999
       N       E                     dE             d eps       ncg     rms          rms(c)
DAV:   1    -0.230755029340E+04    0.61159E-01   -0.83737E+00  4470   0.139E+00    0.575E-01
RMM:   2    -0.230754873028E+04    0.15631E-02   -0.33709E-02  3916   0.102E-01    0.345E-01
RMM:   3    -0.230754882306E+04   -0.92782E-04   -0.82819E-03  4185   0.590E-02    0.570E-01
RMM:   4    -0.230754726273E+04    0.15603E-02   -0.44966E-03  4584   0.257E-02    0.209E-01
RMM:   5    -0.230754721218E+04    0.50556E-04   -0.65452E-04  3853   0.183E-02    0.441E-02
RMM:   6    -0.230754718740E+04    0.24780E-04   -0.75410E-05  3125   0.637E-03    0.288E-02
RMM:   7    -0.230754718221E+04    0.51820E-05   -0.71213E-05  3274   0.421E-03
   3 F= -.23280203E+04 E0= -.23280203E+04  d E =-.545723E-07  mag=     6.0000
       N       E                     dE             d eps       ncg     rms          rms(c)
DAV:   1    -0.230760200687E+04   -0.54819E-01   -0.42303E+00  4380   0.108E+00    0.421E-01
RMM:   2    -0.230760111425E+04    0.89262E-03   -0.19974E-02  3811   0.736E-02    0.252E-01
RMM:   3    -0.230760062530E+04    0.48894E-03   -0.42754E-03  4377   0.389E-02    0.352E-01
RMM:   4    -0.230760011167E+04    0.51364E-03   -0.18112E-03  4384   0.162E-02    0.178E-01
RMM:   5    -0.230760003044E+04    0.81222E-04   -0.33956E-04  3764   0.115E-02    0.252E-02
RMM:   6    -0.230760001601E+04    0.14438E-04   -0.36186E-05  2882   0.485E-03    0.174E-02
RMM:   7    -0.230760001324E+04    0.27666E-05   -0.35576E-05  3014   0.292E-03
   4 F= -.23280730E+04 E0= -.23280730E+04  d E =-.167399E-07  mag=     6.0000
       N       E                     dE             d eps       ncg     rms          rms(c)
DAV:   1    -0.230756467102E+04    0.35345E-01   -0.84084E+00  4500   0.148E+00    0.572E-01
RMM:   2    -0.230756366545E+04    0.10056E-02   -0.39109E-02  3985   0.108E-01    0.338E-01
RMM:   3    -0.230756168372E+04    0.19817E-02   -0.71999E-03  4247   0.545E-02    0.136E-01
RMM:   4    -0.230756198182E+04   -0.29810E-03   -0.34410E-03  3844   0.226E-02    0.110E-01
RMM:   5    -0.230756191636E+04    0.65461E-04   -0.44138E-04  3351   0.212E-02    0.708E-02
RMM:   6    -0.230756185697E+04    0.59389E-04   -0.74113E-05  3246   0.480E-03    0.223E-02
RMM:   7    -0.230756184762E+04    0.93493E-05   -0.86118E-05  3356   0.432E-03
   5 F= -.23280361E+04 E0= -.23280361E+04  d E =-.856512E-07  mag=     6.0000
       N       E                     dE             d eps       ncg     rms          rms(c)
DAV:   1    -0.230760131169E+04   -0.39455E-01   -0.40607E+00  4380   0.103E+00    0.413E-01
RMM:   2    -0.230760108362E+04    0.22807E-03   -0.20093E-02  3883   0.742E-02    0.236E-01
RMM:   3    -0.230760067682E+04    0.40680E-03   -0.30423E-03  4231   0.380E-02    0.289E-01
RMM:   4    -0.230760050308E+04    0.17373E-03   -0.17164E-03  4130   0.152E-02    0.214E-01
RMM:   5    -0.230760034221E+04    0.16087E-03   -0.50237E-04  3944   0.135E-02    0.306E-02
RMM:   6    -0.230760034142E+04    0.79023E-06   -0.52590E-05  2960   0.542E-03
   6 F= -.23280716E+04 E0= -.23280716E+04  d E =-.979715E-07  mag=     6.0000
       N       E                     dE             d eps       ncg     rms          rms(c)
DAV:   1    -0.230758597946E+04    0.14363E-01   -0.79130E+00  4380   0.135E+00    0.549E-01
RMM:   2    -0.230758717768E+04   -0.11982E-02   -0.35952E-02  3989   0.958E-02    0.317E-01
RMM:   3    -0.230758784483E+04   -0.66715E-03   -0.55996E-03  4213   0.515E-02    0.571E-01
RMM:   4    -0.230758602804E+04    0.18168E-02   -0.28202E-03  4110   0.211E-02    0.178E-01
RMM:   5    -0.230758615044E+04   -0.12240E-03   -0.10297E-03  3828   0.181E-02    0.585E-02
RMM:   6    -0.230758616244E+04   -0.12003E-04   -0.11589E-04  3283   0.788E-03    0.277E-02
RMM:   7    -0.230758618147E+04   -0.19026E-04   -0.38256E-05  3052   0.413E-03    0.137E-02
RMM:   8    -0.230758618365E+04   -0.21762E-05   -0.10413E-05  2706   0.320E-03
   7 F= -.23280615E+04 E0= -.23280615E+04  d E =-.150928E-07  mag=     6.0000
       N       E                     dE             d eps       ncg     rms          rms(c)
DAV:   1    -0.230760116952E+04   -0.14988E-01   -0.20678E+00  4440   0.709E-01    0.333E-01
RMM:   2    -0.230760142381E+04   -0.25430E-03   -0.12252E-02  3740   0.536E-02    0.211E-01
RMM:   3    -0.230760212267E+04   -0.69885E-03   -0.24116E-03  4042   0.309E-02    0.416E-01
RMM:   4    -0.230760114612E+04    0.97655E-03   -0.10532E-03  3972   0.140E-02    0.849E-02
RMM:   5    -0.230760119722E+04   -0.51106E-04   -0.22861E-04  3431   0.101E-02    0.272E-02
RMM:   6    -0.230760120492E+04   -0.76936E-05   -0.48136E-05  2931   0.556E-03
   8 F= -.23280743E+04 E0= -.23280743E+04  d E =-.443596E-07  mag=     6.0000
       N       E                     dE             d eps       ncg     rms          rms(c)
DAV:   1    -0.230758177431E+04    0.19423E-01   -0.12381E+00  4980   0.526E-01    0.572E-01
RMM:   2    -0.230757611933E+04    0.56550E-02   -0.20848E-02  3857   0.636E-02    0.327E-01
RMM:   3    -0.230757677046E+04   -0.65113E-03   -0.46393E-03  3913   0.432E-02    0.536E-01
RMM:   4    -0.230757543036E+04    0.13401E-02   -0.24095E-03  4587   0.188E-02    0.204E-01
RMM:   5    -0.230757520687E+04    0.22350E-03   -0.36046E-04  3489   0.102E-02    0.575E-02
RMM:   6    -0.230757519696E+04    0.99050E-05   -0.79005E-05  2965   0.619E-03
   9 F= -.23280492E+04 E0= -.23280492E+04  d E =-.335181E-07  mag=     6.0000
       N       E                     dE             d eps       ncg     rms          rms(c)
DAV:   1    -0.230760853279E+04   -0.33326E-01   -0.60197E-01  4620   0.350E-01    0.316E-01
RMM:   2    -0.230760725710E+04    0.12757E-02   -0.65590E-03  3656   0.367E-02    0.189E-01
RMM:   3    -0.230760762060E+04   -0.36351E-03   -0.16233E-03  3662   0.240E-02    0.337E-01
RMM:   4    -0.230760705601E+04    0.56459E-03   -0.83654E-04  3951   0.114E-02    0.101E-01
RMM:   5    -0.230760701540E+04    0.40607E-04   -0.10617E-04  3150   0.630E-03    0.282E-02
RMM:   6    -0.230760701517E+04    0.22813E-06   -0.24264E-05  2712   0.364E-03
  10 F= -.23280804E+04 E0= -.23280804E+04  d E =-.390571E-07  mag=     6.0000
       N       E                     dE             d eps       ncg     rms          rms(c)
DAV:   1    -0.230758729937E+04    0.19716E-01   -0.11928E+00  4410   0.483E-01    0.301E-01
RMM:   2    -0.230758758674E+04   -0.28737E-03   -0.53109E-03  3600   0.361E-02    0.182E-01
RMM:   3    -0.230758775854E+04   -0.17180E-03   -0.12516E-03  3860   0.230E-02    0.171E-01
RMM:   4    -0.230758760975E+04    0.14879E-03   -0.27521E-04  3362   0.752E-03    0.208E-02
RMM:   5    -0.230758760404E+04    0.57070E-05   -0.29526E-05  2821   0.444E-03
  11 F= -.23280613E+04 E0= -.23280613E+04  d E =-.399768E-07  mag=     6.0000
       N       E                     dE             d eps       ncg     rms          rms(c)
DAV:   1    -0.230761080810E+04   -0.23198E-01   -0.60009E-01  4410   0.352E-01    0.246E-01
RMM:   2    -0.230761078183E+04    0.26278E-04   -0.38548E-03  3563   0.286E-02    0.152E-01
RMM:   3    -0.230761112387E+04   -0.34204E-03   -0.10975E-03  3675   0.198E-02    0.289E-01
RMM:   4    -0.230761067069E+04    0.45318E-03   -0.52437E-04  3596   0.950E-03    0.525E-02
RMM:   5    -0.230761066125E+04    0.94412E-05   -0.51372E-05  2827   0.541E-03
  12 F= -.23280838E+04 E0= -.23280838E+04  d E =-.513331E-07  mag=     6.0000
       N       E                     dE             d eps       ncg     rms          rms(c)
DAV:   1    -0.230758221247E+04    0.28458E-01   -0.11841E+00  4440   0.506E-01    0.372E-01
RMM:   2    -0.230758190799E+04    0.30448E-03   -0.94397E-03  3648   0.407E-02    0.218E-01
RMM:   3    -0.230758197600E+04   -0.68010E-04   -0.18933E-03  3852   0.268E-02    0.293E-01
RMM:   4    -0.230758157862E+04    0.39737E-03   -0.77763E-04  3881   0.110E-02    0.969E-02
RMM:   5    -0.230758153561E+04    0.43012E-04   -0.11923E-04  3234   0.707E-03    0.175E-02
RMM:   6    -0.230758153825E+04   -0.26400E-05   -0.19194E-05  2649   0.287E-03
  13 F= -.23280555E+04 E0= -.23280555E+04  d E =-.286486E-07  mag=     6.0000
       N       E                     dE             d eps       ncg     rms          rms(c)
DAV:   1    -0.230757312345E+04    0.84122E-02   -0.58737E-01  4590   0.374E-01    0.251E-01
RMM:   2    -0.230757311292E+04    0.10526E-04   -0.42343E-03  3543   0.321E-02    0.149E-01
RMM:   3    -0.230757294273E+04    0.17019E-03   -0.70882E-04  3629   0.172E-02    0.326E-02
RMM:   4    -0.230757296914E+04   -0.26411E-04   -0.13009E-04  3074   0.565E-03    0.339E-02
RMM:   5    -0.230757296286E+04    0.62812E-05   -0.19201E-05  2518   0.366E-03
  14 F= -.23280467E+04 E0= -.23280467E+04  d E =-.363575E-07  mag=     6.0000
       N       E                     dE             d eps       ncg     rms          rms(c)
DAV:   1    -0.230761787764E+04   -0.44908E-01   -0.11999E+00  4530   0.500E-01    0.389E-01
RMM:   2    -0.230761659389E+04    0.12838E-02   -0.93354E-03  3635   0.460E-02    0.219E-01
RMM:   3    -0.230761627229E+04    0.32160E-03   -0.16487E-03  3699   0.274E-02    0.101E-01
RMM:   4    -0.230761642175E+04   -0.14946E-03   -0.64397E-04  3606   0.109E-02    0.151E-01
RMM:   5    -0.230761631292E+04    0.10884E-03   -0.20512E-04  3070   0.888E-03    0.648E-02
RMM:   6    -0.230761628674E+04    0.26178E-04   -0.27363E-05  2706   0.307E-03    0.103E-02
RMM:   7    -0.230761628639E+04    0.34554E-06   -0.61194E-06  2512   0.184E-03
  15 F= -.23280897E+04 E0= -.23280897E+04  d E =-.434250E-07  mag=     6.0000
       N       E                     dE             d eps       ncg     rms          rms(c)
DAV:   1    -0.230756434182E+04    0.51945E-01   -0.61320E-01  4980   0.369E-01    0.387E-01
RMM:   2    -0.230756189777E+04    0.24441E-02   -0.97335E-03  3660   0.442E-02    0.206E-01
RMM:   3    -0.230756150106E+04    0.39671E-03   -0.15577E-03  3614   0.286E-02    0.121E-01
RMM:   4    -0.230756170873E+04   -0.20767E-03   -0.83529E-04  3853   0.114E-02    0.207E-01
RMM:   5    -0.230756147314E+04    0.23559E-03   -0.28377E-04  3243   0.887E-03    0.642E-02
RMM:   6    -0.230756144837E+04    0.24774E-04   -0.35091E-05  2724   0.347E-03    0.105E-02
RMM:   7    -0.230756144802E+04    0.34904E-06   -0.56445E-06  2430   0.184E-03
  16 F= -.23280355E+04 E0= -.23280355E+04  d E =-.378553E-07  mag=     6.0000
       N       E                     dE             d eps       ncg     rms          rms(c)
DAV:   1    -0.230762431304E+04   -0.62865E-01   -0.12216E+00  4770   0.514E-01    0.495E-01
RMM:   2    -0.230762075916E+04    0.35539E-02   -0.16066E-02  3801   0.588E-02    0.270E-01
RMM:   3    -0.230762025562E+04    0.50354E-03   -0.28363E-03  3744   0.390E-02    0.202E-01
RMM:   4    -0.230762060864E+04   -0.35302E-03   -0.16380E-03  4296   0.154E-02    0.287E-01
RMM:   5    -0.230762014425E+04    0.46439E-03   -0.44913E-04  3654   0.108E-02    0.687E-02
RMM:   6    -0.230762011490E+04    0.29345E-04   -0.55552E-05  2864   0.441E-03    0.134E-02
RMM:   7    -0.230762011497E+04   -0.68510E-07   -0.11341E-05  2663   0.245E-03
  17 F= -.23280932E+04 E0= -.23280932E+04  d E =-.422295E-07  mag=     6.0000
       N       E                     dE             d eps       ncg     rms          rms(c)
DAV:   1    -0.230759035168E+04    0.29763E-01   -0.60158E-01  4530   0.356E-01    0.268E-01
RMM:   2    -0.230758989636E+04    0.45533E-03   -0.47503E-03  3589   0.306E-02    0.153E-01
RMM:   3    -0.230758982750E+04    0.68861E-04   -0.78597E-04  3606   0.191E-02    0.135E-01
RMM:   4    -0.230758987633E+04   -0.48834E-04   -0.42823E-04  3647   0.801E-03    0.140E-01
RMM:   5    -0.230758977483E+04    0.10150E-03   -0.10415E-04  3054   0.584E-03    0.252E-02
RMM:   6    -0.230758977267E+04    0.21623E-05   -0.12142E-05  2594   0.264E-03
  18 F= -.23280637E+04 E0= -.23280637E+04  d E =-.621465E-07  mag=     6.0000
       N       E                     dE             d eps       ncg     rms          rms(c)
DAV:   1    -0.230760379248E+04   -0.14018E-01   -0.11811E+00  4320   0.494E-01    0.316E-01
RMM:   2    -0.230760409348E+04   -0.30099E-03   -0.62873E-03  3561   0.363E-02    0.191E-01
RMM:   3    -0.230760444762E+04   -0.35414E-03   -0.13510E-03  3855   0.227E-02    0.280E-01
RMM:   4    -0.230760404255E+04    0.40507E-03   -0.60284E-04  3701   0.976E-03    0.850E-02
RMM:   5    -0.230760403087E+04    0.11678E-04   -0.65298E-05  2956   0.546E-03    0.226E-02
RMM:   6    -0.230760402885E+04    0.20248E-05   -0.12562E-05  2624   0.283E-03
  19 F= -.23280772E+04 E0= -.23280772E+04  d E =-.233552E-07  mag=     6.0000
       N       E                     dE             d eps       ncg     rms          rms(c)
DAV:   1    -0.230758023021E+04    0.23801E-01   -0.59801E-01  4440   0.377E-01    0.241E-01
RMM:   2    -0.230758013484E+04    0.95376E-04   -0.38204E-03  3594   0.290E-02    0.142E-01
RMM:   3    -0.230758008477E+04    0.50066E-04   -0.69853E-04  3631   0.160E-02    0.106E-01
RMM:   4    -0.230758010421E+04   -0.19438E-04   -0.28057E-04  3390   0.702E-03    0.101E-01
RMM:   5    -0.230758004785E+04    0.56360E-04   -0.50051E-05  2818   0.454E-03    0.154E-02
RMM:   6    -0.230758004531E+04    0.25379E-05   -0.73258E-06  2467   0.197E-03
  20 F= -.23280537E+04 E0= -.23280537E+04  d E =-.413138E-07  mag=     6.0000
       N       E                     dE             d eps       ncg     rms          rms(c)
DAV:   1    -0.230761058441E+04   -0.30537E-01   -0.12021E+00  4560   0.498E-01    0.379E-01
RMM:   2    -0.230760944334E+04    0.11411E-02   -0.83890E-03  3689   0.440E-02    0.215E-01
RMM:   3    -0.230760942648E+04    0.16860E-04   -0.15682E-03  3648   0.277E-02    0.220E-01
RMM:   4    -0.230760941657E+04    0.99090E-05   -0.91919E-04  4011   0.116E-02    0.179E-01
RMM:   5    -0.230760925262E+04    0.16396E-03   -0.17817E-04  3361   0.806E-03    0.373E-02
RMM:   6    -0.230760924673E+04    0.58892E-05   -0.27797E-05  2761   0.352E-03
  21 F= -.23280827E+04 E0= -.23280827E+04  d E =-.392017E-07  mag=     6.0000
       N       E                     dE             d eps       ncg     rms          rms(c)
DAV:   1    -0.230762050915E+04   -0.11257E-01   -0.60478E-01  4680   0.350E-01    0.230E-01
RMM:   2    -0.230762049890E+04    0.10245E-04   -0.34082E-03  3578   0.272E-02    0.136E-01
RMM:   3    -0.230762045531E+04    0.43591E-04   -0.56763E-04  3603   0.160E-02    0.440E-02
RMM:   4    -0.230762052096E+04   -0.65641E-04   -0.17709E-04  3362   0.620E-03    0.983E-02
RMM:   5    -0.230762046597E+04    0.54989E-04   -0.42063E-05  2643   0.466E-03    0.976E-03
RMM:   6    -0.230762046468E+04    0.12862E-05   -0.83652E-06  2334   0.169E-03
  22 F= -.23280934E+04 E0= -.23280934E+04  d E =-.411901E-07  mag=     6.0000
       N       E                     dE             d eps       ncg     rms          rms(c)
DAV:   1    -0.230756455034E+04    0.55916E-01   -0.12238E+00  5100   0.515E-01    0.499E-01
RMM:   2    -0.230756087523E+04    0.36751E-02   -0.16571E-02  3811   0.565E-02    0.275E-01
RMM:   3    -0.230756064726E+04    0.22797E-03   -0.29809E-03  3743   0.392E-02    0.307E-01
RMM:   4    -0.230756053281E+04    0.11445E-03   -0.16303E-03  4426   0.156E-02    0.239E-01
RMM:   5    -0.230756021036E+04    0.32245E-03   -0.34707E-04  3610   0.999E-03    0.573E-02
RMM:   6    -0.230756019685E+04    0.13506E-04   -0.55649E-05  2879   0.493E-03    0.125E-02
RMM:   7    -0.230756019697E+04   -0.11417E-06   -0.10362E-05  2647   0.243E-03
  23 F= -.23280344E+04 E0= -.23280344E+04  d E =-.375262E-07  mag=     6.0000
       N       E                     dE             d eps       ncg     rms          rms(c)
DAV:   1    -0.230762026607E+04   -0.60069E-01   -0.59861E-01  4920   0.350E-01    0.316E-01
RMM:   2    -0.230761916811E+04    0.10980E-02   -0.65651E-03  3647   0.364E-02    0.176E-01
RMM:   3    -0.230761894977E+04    0.21834E-03   -0.11297E-03  3781   0.218E-02    0.119E-01
RMM:   4    -0.230761909133E+04   -0.14155E-03   -0.55952E-04  3794   0.931E-03    0.179E-01
RMM:   5    -0.230761891091E+04    0.18042E-03   -0.16791E-04  3161   0.708E-03    0.377E-02
RMM:   6    -0.230761890369E+04    0.72166E-05   -0.21330E-05  2651   0.301E-03
  24 F= -.23280928E+04 E0= -.23280928E+04  d E =-.451962E-07  mag=     6.0000
       N       E                     dE             d eps       ncg     rms          rms(c)
DAV:   1    -0.230757590736E+04    0.43004E-01   -0.11557E+00  4470   0.490E-01    0.321E-01
RMM:   2    -0.230757614409E+04   -0.23673E-03   -0.66484E-03  3645   0.356E-02    0.193E-01
RMM:   3    -0.230757649741E+04   -0.35333E-03   -0.15920E-03  4080   0.237E-02    0.311E-01
RMM:   4    -0.230757597061E+04    0.52681E-03   -0.57138E-04  3793   0.960E-03    0.358E-02
RMM:   5    -0.230757597460E+04   -0.39926E-05   -0.77994E-05  2962   0.533E-03
  25 F= -.23280492E+04 E0= -.23280492E+04  d E =-.336679E-07  mag=     6.0000
       N       E                     dE             d eps       ncg     rms          rms(c)
DAV:   1    -0.230759077141E+04   -0.14801E-01   -0.54809E-01  4410   0.375E-01    0.183E-01
RMM:   2    -0.230759101573E+04   -0.24431E-03   -0.29153E-03  3616   0.274E-02    0.166E-01
RMM:   3    -0.230759109709E+04   -0.81365E-04   -0.65442E-04  3364   0.147E-02    0.215E-01
RMM:   4    -0.230759085306E+04    0.24403E-03   -0.37429E-04  3409   0.827E-03    0.246E-02
RMM:   5    -0.230759085916E+04   -0.60990E-05   -0.48360E-05  2851   0.506E-03
  26 F= -.23280651E+04 E0= -.23280651E+04  d E =-.462206E-07  mag=     6.0000
       N       E                     dE             d eps       ncg     rms          rms(c)
DAV:   1    -0.230760488722E+04   -0.14034E-01   -0.10312E+00  4380   0.500E-01    0.182E-01
RMM:   2    -0.230760525819E+04   -0.37097E-03   -0.41425E-03  3668   0.332E-02    0.176E-01
RMM:   3    -0.230760526385E+04   -0.56592E-05   -0.73193E-04  3428   0.163E-02    0.210E-01
RMM:   4    -0.230760503895E+04    0.22490E-03   -0.34975E-04  3455   0.794E-03    0.409E-02
RMM:   5    -0.230760504709E+04   -0.81420E-05   -0.82646E-05  2937   0.534E-03
  27 F= -.23280779E+04 E0= -.23280779E+04  d E =-.354786E-07  mag=     6.0000
       N       E                     dE             d eps       ncg     rms          rms(c)
DAV:   1    -0.230757200025E+04    0.33039E-01   -0.52243E-01  4380   0.358E-01    0.150E-01
RMM:   2    -0.230757267215E+04   -0.67190E-03   -0.29862E-03  3701   0.271E-02    0.305E-01
RMM:   3    -0.230757212297E+04    0.54917E-03   -0.50338E-04  3256   0.131E-02    0.825E-02
RMM:   4    -0.230757213736E+04   -0.14383E-04   -0.19569E-04  3277   0.583E-03    0.669E-02
RMM:   5    -0.230757213251E+04    0.48493E-05   -0.77201E-05  2943   0.531E-03
  28 F= -.23280466E+04 E0= -.23280466E+04  d E =-.885025E-07  mag=     6.0000
       N       E                     dE             d eps       ncg     rms          rms(c)
DAV:   1    -0.230762316340E+04   -0.51026E-01   -0.10525E+00  4380   0.502E-01    0.219E-01
RMM:   2    -0.230762481146E+04   -0.16481E-02   -0.69067E-03  4035   0.414E-02    0.460E-01
RMM:   3    -0.230762360987E+04    0.12016E-02   -0.11696E-03  3589   0.199E-02    0.124E-01
RMM:   4    -0.230762366213E+04   -0.52253E-04   -0.42476E-04  3479   0.830E-03    0.924E-02
RMM:   5    -0.230762369609E+04   -0.33968E-04   -0.16727E-04  3253   0.747E-03    0.631E-02
RMM:   6    -0.230762370521E+04   -0.91161E-05   -0.62669E-05  2928   0.438E-03
  29 F= -.23280963E+04 E0= -.23280963E+04  d E =-.138755E-07  mag=     6.0000
       N       E                     dE             d eps       ncg     rms          rms(c)
DAV:   1    -0.230755713692E+04    0.66559E-01   -0.52844E-01  4320   0.364E-01    0.293E-01
RMM:   2    -0.230755763095E+04   -0.49404E-03   -0.81929E-03  4016   0.363E-02    0.444E-01
RMM:   3    -0.230755702336E+04    0.60759E-03   -0.21976E-03  3802   0.255E-02    0.250E-01
RMM:   4    -0.230755660469E+04    0.41868E-03   -0.53936E-04  4088   0.965E-03    0.104E-01
RMM:   5    -0.230755655212E+04    0.52569E-04   -0.21314E-04  3409   0.745E-03    0.332E-02
RMM:   6    -0.230755654393E+04    0.81898E-05   -0.35121E-05  2937   0.438E-03
  30 F= -.23280316E+04 E0= -.23280316E+04  d E =-.117452E-06  mag=     6.0000
       N       E                     dE             d eps       ncg     rms          rms(c)
DAV:   1    -0.230764302715E+04   -0.86475E-01   -0.10741E+00  4320   0.527E-01    0.576E-01
RMM:   2    -0.230765065583E+04   -0.76287E-02   -0.30805E-02  4429   0.662E-02    0.132E+00
RMM:   3    -0.230764189537E+04    0.87605E-02   -0.97113E-03  4926   0.426E-02    0.311E-01
RMM:   4    -0.230764102023E+04    0.87514E-03   -0.13447E-03  4458   0.152E-02    0.151E-01
RMM:   5    -0.230764091894E+04    0.10129E-03   -0.55800E-04  3994   0.115E-02    0.578E-02
RMM:   6    -0.230764089555E+04    0.23389E-04   -0.94854E-05  3136   0.599E-03    0.233E-02
RMM:   7    -0.230764089074E+04    0.48118E-05   -0.28528E-05  2914   0.398E-03
  31 F= -.23281124E+04 E0= -.23281124E+04  d E =-.117735E-07  mag=     6.0000
