       N       E                     dE             d eps       ncg     rms          rms(c)
DAV:   1     0.127133594371E+05    0.12713E+05   -0.84688E+05  4640   0.143E+03
DAV:   2    -0.122252166758E+04   -0.13936E+05   -0.13365E+05  5120   0.325E+02
DAV:   3    -0.249886860036E+04   -0.12763E+04   -0.12655E+04  5440   0.107E+02
DAV:   4    -0.253001062133E+04   -0.31142E+02   -0.30974E+02  5760   0.212E+01
DAV:   5    -0.253092292945E+04   -0.91231E+00   -0.91047E+00  5680   0.303E+00    0.170E+02
RMM:   6    -0.149679132719E+04    0.10341E+04   -0.19329E+03  4508   0.378E+01    0.725E+01
RMM:   7    -0.166835065716E+04   -0.17156E+03   -0.28436E+02  5146   0.141E+01    0.539E+01
RMM:   8    -0.171671378684E+04   -0.48363E+02   -0.93725E+01  5360   0.807E+00    0.428E+01
RMM:   9    -0.178635113998E+04   -0.69637E+02   -0.56156E+01  5038   0.744E+00    0.308E+01
RMM:  10    -0.192409888387E+04   -0.13775E+03   -0.64047E+01  5523   0.747E+00    0.267E+01
RMM:  11    -0.200821379234E+04   -0.84115E+02   -0.35497E+01  5520   0.506E+00    0.172E+01
RMM:  12    -0.210835465606E+04   -0.10014E+03   -0.50206E+01  4731   0.540E+00    0.140E+01
RMM:  13    -0.217998441802E+04   -0.71630E+02   -0.37879E+01  5095   0.486E+00    0.166E+01
RMM:  14    -0.226751982121E+04   -0.87535E+02   -0.70984E+01  4503   0.610E+00    0.853E+00
RMM:  15    -0.229917818564E+04   -0.31658E+02   -0.27449E+01  4661   0.422E+00    0.530E+00
RMM:  16    -0.231367042966E+04   -0.14492E+02   -0.15281E+01  4749   0.260E+00    0.265E+00
RMM:  17    -0.232023108846E+04   -0.65607E+01   -0.65609E+00  4830   0.173E+00    0.306E+00
RMM:  18    -0.232118027797E+04   -0.94919E+00   -0.15981E+00  5468   0.763E-01    0.177E+00
RMM:  19    -0.232241219059E+04   -0.12319E+01   -0.11433E+00  4611   0.520E-01    0.852E-01
RMM:  20    -0.232282838550E+04   -0.41619E+00   -0.50141E-01  4682   0.368E-01    0.500E-01
RMM:  21    -0.232296966767E+04   -0.14128E+00   -0.18947E-01  4768   0.208E-01    0.314E-01
RMM:  22    -0.232302899583E+04   -0.59328E-01   -0.65872E-02  4643   0.135E-01    0.199E-01
RMM:  23    -0.232305713736E+04   -0.28142E-01   -0.17023E-02  4735   0.848E-02    0.117E-01
RMM:  24    -0.232307325367E+04   -0.16116E-01   -0.65507E-03  4658   0.527E-02    0.696E-02
RMM:  25    -0.232308311404E+04   -0.98604E-02   -0.28283E-03  4541   0.381E-02    0.525E-02
RMM:  26    -0.232308905108E+04   -0.59370E-02   -0.16849E-03  4586   0.296E-02    0.281E-02
RMM:  27    -0.232309125667E+04   -0.22056E-02   -0.74555E-04  4477   0.206E-02    0.164E-02
RMM:  28    -0.232309199148E+04   -0.73481E-03   -0.24170E-04  4101   0.107E-02    0.103E-02
RMM:  29    -0.232309222315E+04   -0.23168E-03   -0.60125E-05  3629   0.707E-03    0.564E-03
RMM:  30    -0.232309232508E+04   -0.10193E-03   -0.23238E-05  3139   0.410E-03    0.306E-03
RMM:  31    -0.232309237912E+04   -0.54033E-04   -0.11178E-05  2930   0.331E-03    0.166E-03
RMM:  32    -0.232309240141E+04   -0.22292E-04   -0.63797E-06  2834   0.260E-03    0.939E-04
RMM:  33    -0.232309240666E+04   -0.52554E-05   -0.29659E-06  2496   0.208E-03
   1 F= -.23444554E+04 E0= -.23444554E+04  d E =-.125942E-05  mag=     4.0000
       N       E                     dE             d eps       ncg     rms          rms(c)
DAV:   1    -0.232310210079E+04   -0.96994E-02   -0.19957E+00  4480   0.595E-01    0.294E-01
RMM:   2    -0.232310139618E+04    0.70461E-03   -0.11271E-02  3861   0.404E-02    0.161E-01
RMM:   3    -0.232310120344E+04    0.19274E-03   -0.21845E-03  4379   0.251E-02    0.182E-01
RMM:   4    -0.232310086236E+04    0.34108E-03   -0.94653E-04  4269   0.130E-02    0.722E-02
RMM:   5    -0.232310080160E+04    0.60760E-04   -0.95893E-05  2885   0.585E-03    0.210E-02
RMM:   6    -0.232310081528E+04   -0.13677E-04   -0.41596E-05  2798   0.327E-03    0.371E-02
RMM:   7    -0.232310080103E+04    0.14249E-04   -0.15057E-05  2575   0.250E-03    0.939E-03
RMM:   8    -0.232310080231E+04   -0.12875E-05   -0.48594E-06  2324   0.140E-03
   2 F= -.23444637E+04 E0= -.23444637E+04  d E =-.126719E-05  mag=     4.0000
       N       E                     dE             d eps       ncg     rms          rms(c)
DAV:   1    -0.232307883799E+04    0.21963E-01   -0.80206E+00  4480   0.118E+00    0.602E-01
RMM:   2    -0.232307440999E+04    0.44280E-02   -0.33407E-02  4061   0.771E-02    0.323E-01
RMM:   3    -0.232307443503E+04   -0.25045E-04   -0.86557E-03  4392   0.538E-02    0.391E-01
RMM:   4    -0.232307270922E+04    0.17258E-02   -0.40716E-03  5491   0.265E-02    0.127E-01
RMM:   5    -0.232307250418E+04    0.20504E-03   -0.33651E-04  3294   0.987E-03    0.404E-02
RMM:   6    -0.232307255069E+04   -0.46506E-04   -0.15116E-04  3103   0.588E-03    0.678E-02
RMM:   7    -0.232307250230E+04    0.48384E-04   -0.51901E-05  2838   0.420E-03    0.204E-02
RMM:   8    -0.232307250689E+04   -0.45914E-05   -0.18344E-05  2657   0.257E-03
   3 F= -.23444356E+04 E0= -.23444356E+04  d E =-.129656E-05  mag=     4.0000
       N       E                     dE             d eps       ncg     rms          rms(c)
DAV:   1    -0.232308163360E+04   -0.91313E-02   -0.38977E+00  4640   0.844E-01    0.378E-01
RMM:   2    -0.232308089975E+04    0.73385E-03   -0.13629E-02  3927   0.502E-02    0.204E-01
RMM:   3    -0.232308109677E+04   -0.19701E-03   -0.28877E-03  4677   0.295E-02    0.290E-01
RMM:   4    -0.232308038287E+04    0.71390E-03   -0.12707E-03  3885   0.141E-02    0.103E-01
RMM:   5    -0.232308031252E+04    0.70352E-04   -0.15706E-04  3216   0.679E-03    0.389E-02
RMM:   6    -0.232308031239E+04    0.13129E-06   -0.62852E-05  2801   0.430E-03
   4 F= -.23444443E+04 E0= -.23444443E+04  d E =-.134281E-05  mag=     4.0000
       N       E                     dE             d eps       ncg     rms          rms(c)
DAV:   1    -0.232310021869E+04   -0.19906E-01   -0.77028E+00  4480   0.125E+00    0.474E-01
RMM:   2    -0.232309999732E+04    0.22137E-03   -0.33040E-02  4087   0.744E-02    0.276E-01
RMM:   3    -0.232310038411E+04   -0.38679E-03   -0.51721E-03  5531   0.375E-02    0.376E-01
RMM:   4    -0.232309886004E+04    0.15241E-02   -0.29121E-03  5072   0.229E-02    0.180E-01
RMM:   5    -0.232309879443E+04    0.65618E-04   -0.81455E-04  3466   0.110E-02    0.158E-01
RMM:   6    -0.232309854419E+04    0.25024E-03   -0.21004E-04  2992   0.740E-03    0.271E-02
RMM:   7    -0.232309853821E+04    0.59816E-05   -0.37658E-05  2940   0.331E-03
   5 F= -.23444601E+04 E0= -.23444601E+04  d E =-.121731E-05  mag=     4.0000
       N       E                     dE             d eps       ncg     rms          rms(c)
DAV:   1    -0.232307323117E+04    0.25313E-01   -0.42482E+00  4480   0.939E-01    0.501E-01
RMM:   2    -0.232307094951E+04    0.22817E-02   -0.29913E-02  4070   0.702E-02    0.327E-01
RMM:   3    -0.232307234906E+04   -0.13996E-02   -0.68788E-03  5250   0.419E-02    0.550E-01
RMM:   4    -0.232306912827E+04    0.32208E-02   -0.40956E-03  5396   0.267E-02    0.182E-01
RMM:   5    -0.232306912866E+04   -0.38951E-06   -0.11795E-03  3793   0.136E-02    0.162E-01
RMM:   6    -0.232306877329E+04    0.35537E-03   -0.32509E-04  3339   0.920E-03    0.298E-02
RMM:   7    -0.232306876236E+04    0.10929E-04   -0.41983E-05  2985   0.357E-03    0.166E-02
RMM:   8    -0.232306876564E+04   -0.32792E-05   -0.17445E-05  2785   0.278E-03
   6 F= -.23444309E+04 E0= -.23444309E+04  d E =-.169834E-05  mag=     4.0000
       N       E                     dE             d eps       ncg     rms          rms(c)
DAV:   1    -0.232307789896E+04   -0.91366E-02   -0.90684E+00  4480   0.143E+00    0.101E+00
RMM:   2    -0.232306227189E+04    0.15627E-01   -0.10486E-01  4294   0.129E-01    0.661E-01
RMM:   3    -0.232306969401E+04   -0.74221E-02   -0.27695E-02  5583   0.853E-02    0.115E+00
RMM:   4    -0.232305497663E+04    0.14717E-01   -0.14487E-02  6020   0.501E-02    0.325E-01
RMM:   5    -0.232305501182E+04   -0.35188E-04   -0.45077E-03  5217   0.248E-02    0.315E-01
RMM:   6    -0.232305376844E+04    0.12434E-02   -0.12685E-03  4311   0.156E-02    0.621E-02
RMM:   7    -0.232305375763E+04    0.10803E-04   -0.17792E-04  3193   0.631E-03    0.530E-02
RMM:   8    -0.232305372835E+04    0.29288E-04   -0.80896E-05  3006   0.512E-03    0.299E-02
RMM:   9    -0.232305371825E+04    0.10097E-04   -0.18146E-05  2938   0.304E-03    0.879E-03
RMM:  10    -0.232305371824E+04    0.50350E-08   -0.53754E-06  2763   0.220E-03
   7 F= -.23444172E+04 E0= -.23444172E+04  d E =-.916938E-06  mag=     4.0000
       N       E                     dE             d eps       ncg     rms          rms(c)
DAV:   1    -0.232307949312E+04   -0.25775E-01   -0.39215E+00  4480   0.899E-01    0.489E-01
RMM:   2    -0.232307709630E+04    0.23968E-02   -0.27862E-02  4092   0.670E-02    0.327E-01
RMM:   3    -0.232307871055E+04   -0.16143E-02   -0.58090E-03  5027   0.384E-02    0.548E-01
RMM:   4    -0.232307565191E+04    0.30586E-02   -0.29392E-03  4931   0.218E-02    0.144E-01
RMM:   5    -0.232307556824E+04    0.83676E-04   -0.66865E-04  3752   0.112E-02    0.999E-02
RMM:   6    -0.232307547308E+04    0.95163E-04   -0.27535E-04  3073   0.790E-03    0.506E-02
RMM:   7    -0.232307543799E+04    0.35087E-04   -0.28185E-05  2739   0.365E-03    0.121E-02
RMM:   8    -0.232307543724E+04    0.75251E-06   -0.98497E-06  2676   0.194E-03
   8 F= -.23444377E+04 E0= -.23444377E+04  d E =-.118296E-05  mag=     4.0000
       N       E                     dE             d eps       ncg     rms          rms(c)
DAV:   1    -0.232310901783E+04   -0.33580E-01   -0.82106E+00  4480   0.106E+00    0.558E-01
RMM:   2    -0.232310468640E+04    0.43314E-02   -0.30006E-02  4194   0.656E-02    0.310E-01
RMM:   3    -0.232310538817E+04   -0.70177E-03   -0.74834E-03  5384   0.402E-02    0.472E-01
RMM:   4    -0.232310266790E+04    0.27203E-02   -0.40779E-03  5003   0.251E-02    0.102E-01
RMM:   5    -0.232310269617E+04   -0.28268E-04   -0.62154E-04  3588   0.104E-02    0.794E-02
RMM:   6    -0.232310267019E+04    0.25974E-04   -0.16687E-04  3125   0.678E-03    0.604E-02
RMM:   7    -0.232310265374E+04    0.16447E-04   -0.54825E-05  2924   0.451E-03    0.388E-02
RMM:   8    -0.232310264265E+04    0.11097E-04   -0.28495E-05  2766   0.332E-03    0.184E-02
RMM:   9    -0.232310264168E+04    0.97285E-06   -0.73214E-06  2766   0.221E-03
   9 F= -.23444663E+04 E0= -.23444663E+04  d E =-.133042E-05  mag=     4.0000
       N       E                     dE             d eps       ncg     rms          rms(c)
DAV:   1    -0.232310525470E+04   -0.26121E-02   -0.40821E+00  4480   0.736E-01    0.355E-01
RMM:   2    -0.232310384099E+04    0.14137E-02   -0.12076E-02  3920   0.379E-02    0.193E-01
RMM:   3    -0.232310380776E+04    0.33230E-04   -0.30019E-03  5114   0.242E-02    0.260E-01
RMM:   4    -0.232310300498E+04    0.80278E-03   -0.14463E-03  4194   0.149E-02    0.684E-02
RMM:   5    -0.232310302348E+04   -0.18505E-04   -0.18829E-04  3109   0.682E-03    0.571E-02
RMM:   6    -0.232310299929E+04    0.24190E-04   -0.51854E-05  2720   0.392E-03    0.291E-02
RMM:   7    -0.232310299900E+04    0.29399E-06   -0.18229E-05  2693   0.255E-03
  10 F= -.23444660E+04 E0= -.23444659E+04  d E =-.184947E-05  mag=     4.0000
       N       E                     dE             d eps       ncg     rms          rms(c)
DAV:   1    -0.232308230268E+04    0.20697E-01   -0.82405E+00  4480   0.106E+00    0.482E-01
RMM:   2    -0.232307957265E+04    0.27300E-02   -0.22702E-02  3943   0.557E-02    0.262E-01
RMM:   3    -0.232307951080E+04    0.61858E-04   -0.62446E-03  4969   0.361E-02    0.382E-01
RMM:   4    -0.232307804828E+04    0.14625E-02   -0.21551E-03  4715   0.184E-02    0.131E-01
RMM:   5    -0.232307804121E+04    0.70734E-05   -0.40200E-04  3208   0.916E-03    0.934E-02
RMM:   6    -0.232307793922E+04    0.10199E-03   -0.10902E-04  2897   0.606E-03    0.297E-02
RMM:   7    -0.232307793885E+04    0.36314E-06   -0.39326E-05  2989   0.325E-03
  11 F= -.23444410E+04 E0= -.23444410E+04  d E =-.885972E-06  mag=     4.0000
       N       E                     dE             d eps       ncg     rms          rms(c)
DAV:   1    -0.232305613850E+04    0.21801E-01   -0.43758E+00  4480   0.842E-01    0.596E-01
RMM:   2    -0.232304993091E+04    0.62076E-02   -0.33906E-02  4113   0.634E-02    0.336E-01
RMM:   3    -0.232305216497E+04   -0.22341E-02   -0.91901E-03  5546   0.462E-02    0.616E-01
RMM:   4    -0.232304764508E+04    0.45199E-02   -0.48212E-03  5555   0.279E-02    0.171E-01
RMM:   5    -0.232304779815E+04   -0.15307E-03   -0.15153E-03  3957   0.142E-02    0.200E-01
RMM:   6    -0.232304731512E+04    0.48303E-03   -0.40351E-04  3258   0.941E-03    0.251E-02
RMM:   7    -0.232304731723E+04   -0.21162E-05   -0.49424E-05  2992   0.383E-03
  12 F= -.23444100E+04 E0= -.23444100E+04  d E =-.176596E-05  mag=     4.0000
       N       E                     dE             d eps       ncg     rms          rms(c)
DAV:   1    -0.232308618418E+04   -0.38869E-01   -0.91258E+00  4480   0.132E+00    0.104E+00
RMM:   2    -0.232306235091E+04    0.23833E-01   -0.10212E-01  4397   0.112E-01    0.557E-01
RMM:   3    -0.232306603565E+04   -0.36847E-02   -0.25790E-02  5802   0.793E-02    0.952E-01
RMM:   4    -0.232305487396E+04    0.11162E-01   -0.12573E-02  6028   0.452E-02    0.286E-01
RMM:   5    -0.232305575129E+04   -0.87733E-03   -0.44545E-03  5197   0.243E-02    0.388E-01
RMM:   6    -0.232305388142E+04    0.18699E-02   -0.13122E-03  4248   0.157E-02    0.506E-02
RMM:   7    -0.232305387310E+04    0.83206E-05   -0.14650E-04  3104   0.595E-03    0.292E-02
RMM:   8    -0.232305388126E+04   -0.81629E-05   -0.42104E-05  3022   0.405E-03
  13 F= -.23444172E+04 E0= -.23444172E+04  d E =-.872716E-06  mag=     4.0000
       N       E                     dE             d eps       ncg     rms          rms(c)
DAV:   1    -0.232309378855E+04   -0.39915E-01   -0.27889E+00  4640   0.718E-01    0.556E-01
RMM:   2    -0.232308813629E+04    0.56523E-02   -0.29971E-02  4113   0.593E-02    0.306E-01
RMM:   3    -0.232308896929E+04   -0.83300E-03   -0.66713E-03  5397   0.398E-02    0.465E-01
RMM:   4    -0.232308630569E+04    0.26636E-02   -0.36709E-03  5244   0.244E-02    0.159E-01
RMM:   5    -0.232308662073E+04   -0.31504E-03   -0.12705E-03  3953   0.134E-02    0.225E-01
RMM:   6    -0.232308603323E+04    0.58750E-03   -0.39372E-04  3191   0.942E-03    0.262E-02
RMM:   7    -0.232308602694E+04    0.62834E-05   -0.39989E-05  2829   0.351E-03
  14 F= -.23444486E+04 E0= -.23444486E+04  d E =-.949625E-06  mag=     4.0000
       N       E                     dE             d eps       ncg     rms          rms(c)
DAV:   1    -0.232309631212E+04   -0.10279E-01   -0.11720E+00  4400   0.429E-01    0.345E-01
RMM:   2    -0.232309639050E+04   -0.78377E-04   -0.43485E-03  3883   0.265E-02    0.209E-01
RMM:   3    -0.232309714254E+04   -0.75204E-03   -0.16619E-03  5152   0.188E-02    0.258E-01
RMM:   4    -0.232309630242E+04    0.84012E-03   -0.81581E-04  4001   0.135E-02    0.801E-02
RMM:   5    -0.232309632255E+04   -0.20129E-04   -0.24158E-04  3001   0.676E-03    0.848E-02
RMM:   6    -0.232309624612E+04    0.76433E-04   -0.53101E-05  2787   0.445E-03    0.105E-02
RMM:   7    -0.232309624679E+04   -0.67381E-06   -0.10871E-05  2746   0.213E-03
  15 F= -.23444596E+04 E0= -.23444596E+04  d E =-.162696E-05  mag=     4.0000
       N       E                     dE             d eps       ncg     rms          rms(c)
DAV:   1    -0.232309166263E+04    0.45835E-02   -0.57405E-01  4320   0.296E-01    0.244E-01
RMM:   2    -0.232309171421E+04   -0.51580E-04   -0.19993E-03  3545   0.175E-02    0.147E-01
RMM:   3    -0.232309201314E+04   -0.29894E-03   -0.73324E-04  4151   0.113E-02    0.162E-01
RMM:   4    -0.232309169013E+04    0.32301E-03   -0.42948E-04  3029   0.894E-03    0.320E-02
RMM:   5    -0.232309168602E+04    0.41135E-05   -0.39817E-05  2705   0.332E-03
  16 F= -.23444546E+04 E0= -.23444546E+04  d E =-.112862E-05  mag=     4.0000
       N       E                     dE             d eps       ncg     rms          rms(c)
DAV:   1    -0.232309118374E+04    0.50640E-03   -0.11427E+00  4480   0.421E-01    0.349E-01
RMM:   2    -0.232309106168E+04    0.12206E-03   -0.44502E-03  3649   0.258E-02    0.216E-01
RMM:   3    -0.232309273043E+04   -0.16687E-02   -0.23129E-03  5059   0.195E-02    0.413E-01
RMM:   4    -0.232309096408E+04    0.17663E-02   -0.14125E-03  3987   0.154E-02    0.688E-02
RMM:   5    -0.232309100090E+04   -0.36818E-04   -0.25993E-04  3138   0.746E-03    0.717E-02
RMM:   6    -0.232309092636E+04    0.74539E-04   -0.66216E-05  2722   0.478E-03    0.129E-02
RMM:   7    -0.232309092442E+04    0.19434E-05   -0.96105E-06  2531   0.184E-03
  17 F= -.23444540E+04 E0= -.23444540E+04  d E =-.139086E-05  mag=     4.0000
       N       E                     dE             d eps       ncg     rms          rms(c)
DAV:   1    -0.232307914228E+04    0.11784E-01   -0.63746E-01  4880   0.321E-01    0.411E-01
RMM:   2    -0.232307668983E+04    0.24524E-02   -0.10975E-02  4308   0.354E-02    0.221E-01
RMM:   3    -0.232307632339E+04    0.36644E-03   -0.14220E-03  4360   0.197E-02    0.170E-01
RMM:   4    -0.232307647854E+04   -0.15515E-03   -0.12913E-03  4223   0.161E-02    0.182E-01
RMM:   5    -0.232307607517E+04    0.40337E-03   -0.41674E-04  3634   0.103E-02    0.806E-02
RMM:   6    -0.232307603467E+04    0.40507E-04   -0.12652E-04  2784   0.537E-03    0.507E-02
RMM:   7    -0.232307601039E+04    0.24280E-04   -0.18915E-05  2558   0.283E-03    0.899E-03
RMM:   8    -0.232307601159E+04   -0.12007E-05   -0.68843E-06  2396   0.171E-03
  18 F= -.23444389E+04 E0= -.23444389E+04  d E =-.121114E-05  mag=     4.0000
       N       E                     dE             d eps       ncg     rms          rms(c)
DAV:   1    -0.232308868613E+04   -0.12676E-01   -0.12760E+00  4880   0.438E-01    0.627E-01
RMM:   2    -0.232308199539E+04    0.66907E-02   -0.28221E-02  4592   0.572E-02    0.331E-01
RMM:   3    -0.232308075096E+04    0.12444E-02   -0.32325E-03  4437   0.327E-02    0.221E-01
RMM:   4    -0.232308146935E+04   -0.71839E-03   -0.28969E-03  4918   0.222E-02    0.298E-01
RMM:   5    -0.232308030401E+04    0.11653E-02   -0.10530E-03  4245   0.145E-02    0.715E-02
RMM:   6    -0.232308037846E+04   -0.74453E-04   -0.27171E-04  3090   0.768E-03    0.104E-01
RMM:   7    -0.232308025074E+04    0.12772E-03   -0.74271E-05  2821   0.510E-03    0.161E-02
RMM:   8    -0.232308025196E+04   -0.12179E-05   -0.19319E-05  2596   0.222E-03
  19 F= -.23444433E+04 E0= -.23444433E+04  d E =-.130050E-05  mag=     4.0000
       N       E                     dE             d eps       ncg     rms          rms(c)
DAV:   1    -0.232310218716E+04   -0.21936E-01   -0.57974E-01  4480   0.323E-01    0.324E-01
RMM:   2    -0.232310062001E+04    0.15672E-02   -0.75242E-03  4374   0.334E-02    0.175E-01
RMM:   3    -0.232310041917E+04    0.20084E-03   -0.83601E-04  3793   0.168E-02    0.140E-01
RMM:   4    -0.232310072815E+04   -0.30898E-03   -0.86023E-04  3666   0.124E-02    0.209E-01
RMM:   5    -0.232310027708E+04    0.45106E-03   -0.33345E-04  3315   0.882E-03    0.480E-02
RMM:   6    -0.232310027066E+04    0.64288E-05   -0.88680E-05  2880   0.529E-03
  20 F= -.23444638E+04 E0= -.23444638E+04  d E =-.146739E-05  mag=     4.0000
       N       E                     dE             d eps       ncg     rms          rms(c)
DAV:   1    -0.232308401392E+04    0.16263E-01   -0.10557E+00  4480   0.419E-01    0.234E-01
RMM:   2    -0.232308401552E+04   -0.16049E-05   -0.23716E-03  3926   0.216E-02    0.146E-01
RMM:   3    -0.232308473748E+04   -0.72196E-03   -0.12767E-03  3970   0.159E-02    0.261E-01
RMM:   4    -0.232308402045E+04    0.71703E-03   -0.64169E-04  3684   0.114E-02    0.744E-02
RMM:   5    -0.232308399406E+04    0.26390E-04   -0.13304E-04  2970   0.616E-03    0.501E-02
RMM:   6    -0.232308396319E+04    0.30864E-04   -0.29659E-05  2821   0.377E-03    0.106E-02
RMM:   7    -0.232308396334E+04   -0.14572E-06   -0.71038E-06  2708   0.187E-03
  21 F= -.23444464E+04 E0= -.23444464E+04  d E =-.109576E-05  mag=     4.0000
       N       E                     dE             d eps       ncg     rms          rms(c)
DAV:   1    -0.232308918649E+04   -0.52233E-02   -0.53838E-01  4480   0.305E-01    0.191E-01
RMM:   2    -0.232309056210E+04   -0.13756E-02   -0.43484E-03  5194   0.297E-02    0.328E-01
RMM:   3    -0.232308906057E+04    0.15015E-02   -0.10742E-03  4142   0.165E-02    0.987E-02
RMM:   4    -0.232308935069E+04   -0.29012E-03   -0.58702E-04  3261   0.926E-03    0.186E-01
RMM:   5    -0.232308903051E+04    0.32018E-03   -0.24779E-04  3061   0.764E-03    0.230E-02
RMM:   6    -0.232308903211E+04   -0.16059E-05   -0.37050E-05  2803   0.348E-03
  22 F= -.23444502E+04 E0= -.23444502E+04  d E =-.125755E-05  mag=     4.0000
       N       E                     dE             d eps       ncg     rms          rms(c)
DAV:   1    -0.232308632488E+04    0.27056E-02   -0.10552E+00  4480   0.426E-01    0.327E-01
RMM:   2    -0.232309103308E+04   -0.47082E-02   -0.15048E-02  5578   0.562E-02    0.612E-01
RMM:   3    -0.232308561369E+04    0.54194E-02   -0.34179E-03  5374   0.302E-02    0.168E-01
RMM:   4    -0.232308608262E+04   -0.46893E-03   -0.14127E-03  4053   0.139E-02    0.270E-01
RMM:   5    -0.232308540857E+04    0.67405E-03   -0.59307E-04  3612   0.114E-02    0.528E-02
RMM:   6    -0.232308540007E+04    0.84928E-05   -0.11009E-04  3066   0.563E-03    0.432E-02
RMM:   7    -0.232308537675E+04    0.23325E-04   -0.33626E-05  2807   0.357E-03    0.138E-02
RMM:   8    -0.232308537395E+04    0.28014E-05   -0.70789E-06  2644   0.192E-03
  23 F= -.23444497E+04 E0= -.23444497E+04  d E =-.122324E-05  mag=     4.0000
       N       E                     dE             d eps       ncg     rms          rms(c)
DAV:   1    -0.232310580692E+04   -0.20430E-01   -0.55015E-01  4480   0.316E-01    0.211E-01
RMM:   2    -0.232310707472E+04   -0.12678E-02   -0.54631E-03  5156   0.334E-02    0.351E-01
RMM:   3    -0.232310553163E+04    0.15431E-02   -0.12551E-03  4312   0.176E-02    0.124E-01
RMM:   4    -0.232310582257E+04   -0.29095E-03   -0.86738E-04  3660   0.114E-02    0.197E-01
RMM:   5    -0.232310542324E+04    0.39933E-03   -0.36590E-04  3476   0.890E-03    0.247E-02
RMM:   6    -0.232310542546E+04   -0.22209E-05   -0.42781E-05  2904   0.401E-03
  24 F= -.23444695E+04 E0= -.23444695E+04  d E =-.122432E-05  mag=     4.0000
       N       E                     dE             d eps       ncg     rms          rms(c)
DAV:   1    -0.232307870568E+04    0.26718E-01   -0.10389E+00  4480   0.433E-01    0.292E-01
RMM:   2    -0.232307846394E+04    0.24173E-03   -0.66066E-03  4353   0.323E-02    0.238E-01
RMM:   3    -0.232307911062E+04   -0.64667E-03   -0.22706E-03  4599   0.222E-02    0.355E-01
RMM:   4    -0.232307783199E+04    0.12786E-02   -0.11931E-03  4648   0.140E-02    0.457E-02
RMM:   5    -0.232307782700E+04    0.49992E-05   -0.13940E-04  3057   0.584E-03    0.362E-02
RMM:   6    -0.232307781996E+04    0.70388E-05   -0.45417E-05  2812   0.367E-03
  25 F= -.23444394E+04 E0= -.23444394E+04  d E =-.118064E-05  mag=     4.0000
