       N       E                     dE             d eps       ncg     rms          rms(c)
DAV:   1     0.120584692178E+05    0.12058E+05   -0.83023E+05  4640   0.140E+03
DAV:   2    -0.129776154131E+04   -0.13356E+05   -0.12850E+05  4960   0.317E+02
DAV:   3    -0.249171783270E+04   -0.11940E+04   -0.11843E+04  5440   0.101E+02
DAV:   4    -0.251680072220E+04   -0.25083E+02   -0.24942E+02  5680   0.176E+01
DAV:   5    -0.251746976570E+04   -0.66904E+00   -0.66789E+00  5920   0.251E+00    0.170E+02
RMM:   6    -0.148104763751E+04    0.10364E+04   -0.18961E+03  4498   0.377E+01    0.740E+01
RMM:   7    -0.163945082097E+04   -0.15840E+03   -0.27998E+02  5143   0.138E+01    0.563E+01
RMM:   8    -0.168460643507E+04   -0.45156E+02   -0.70196E+01  5266   0.758E+00    0.381E+01
RMM:   9    -0.180882307658E+04   -0.12422E+03   -0.59399E+01  4855   0.743E+00    0.332E+01
RMM:  10    -0.191987491891E+04   -0.11105E+03   -0.48369E+01  5164   0.652E+00    0.241E+01
RMM:  11    -0.201873561097E+04   -0.98861E+02   -0.42164E+01  5071   0.533E+00    0.171E+01
RMM:  12    -0.210746968955E+04   -0.88734E+02   -0.42864E+01  4843   0.493E+00    0.123E+01
RMM:  13    -0.224700348213E+04   -0.13953E+03   -0.12766E+02  4507   0.778E+00    0.768E+00
RMM:  14    -0.229180775400E+04   -0.44804E+02   -0.43261E+01  4542   0.469E+00    0.464E+00
RMM:  15    -0.230194992625E+04   -0.10142E+02   -0.11484E+01  5001   0.274E+00    0.340E+00
RMM:  16    -0.230583075198E+04   -0.38808E+01   -0.42549E+00  4829   0.131E+00    0.303E+00
RMM:  17    -0.230624877934E+04   -0.41803E+00   -0.49003E-01  5118   0.676E-01    0.456E+00
RMM:  18    -0.230674524929E+04   -0.49647E+00   -0.31996E-01  4618   0.326E-01    0.403E+00
RMM:  19    -0.230725163025E+04   -0.50638E+00   -0.38233E-01  4610   0.323E-01    0.368E+00
RMM:  20    -0.230723778304E+04    0.13847E-01   -0.85480E-01  4684   0.424E-01    0.424E+00
RMM:  21    -0.230697197209E+04    0.26581E+00   -0.17188E-01  4731   0.196E-01    0.474E+00
RMM:  22    -0.230790211284E+04   -0.93014E+00   -0.90869E-01  4714   0.334E-01    0.240E+00
RMM:  23    -0.230829299417E+04   -0.39088E+00   -0.36771E-01  4713   0.289E-01    0.356E+00
RMM:  24    -0.230850491247E+04   -0.21192E+00   -0.30125E-01  5032   0.249E-01    0.276E+00
RMM:  25    -0.230850693154E+04   -0.20191E-02   -0.31987E-02  5735   0.813E-02    0.269E+00
RMM:  26    -0.230851658316E+04   -0.96516E-02   -0.62336E-03  4851   0.316E-02    0.250E+00
RMM:  27    -0.230855919834E+04   -0.42615E-01   -0.39021E-02  4660   0.863E-02    0.150E+00
RMM:  28    -0.230862449538E+04   -0.65297E-01   -0.90039E-02  4606   0.135E-01    0.122E+00
RMM:  29    -0.230868075623E+04   -0.56261E-01   -0.62613E-02  4796   0.117E-01    0.981E-01
RMM:  30    -0.230874306305E+04   -0.62307E-01   -0.37733E-02  4598   0.917E-02    0.914E-01
RMM:  31    -0.230876021959E+04   -0.17157E-01   -0.80570E-03  4735   0.527E-02    0.752E-01
RMM:  32    -0.230876797713E+04   -0.77575E-02   -0.11448E-02  4640   0.497E-02    0.477E-01
RMM:  33    -0.230879038850E+04   -0.22411E-01   -0.10460E-02  4713   0.495E-02    0.386E-01
RMM:  34    -0.230879601739E+04   -0.56289E-02   -0.33940E-03  4772   0.358E-02    0.213E-01
RMM:  35    -0.230880224131E+04   -0.62239E-02   -0.20734E-03  4393   0.242E-02    0.103E-01
RMM:  36    -0.230880718222E+04   -0.49409E-02   -0.14238E-03  4268   0.242E-02    0.741E-02
RMM:  37    -0.230880837551E+04   -0.11933E-02   -0.48878E-04  4318   0.172E-02    0.360E-02
RMM:  38    -0.230880894103E+04   -0.56552E-03   -0.16731E-04  3840   0.773E-03    0.181E-02
RMM:  39    -0.230880922120E+04   -0.28017E-03   -0.57366E-05  3493   0.697E-03    0.199E-02
RMM:  40    -0.230880930868E+04   -0.87484E-04   -0.20269E-05  3128   0.373E-03    0.175E-02
RMM:  41    -0.230880935867E+04   -0.49986E-04   -0.10280E-05  2944   0.342E-03    0.135E-02
RMM:  42    -0.230880940453E+04   -0.45860E-04   -0.16077E-05  2947   0.290E-03    0.127E-02
RMM:  43    -0.230880941539E+04   -0.10862E-04   -0.61069E-06  2624   0.273E-03    0.599E-03
RMM:  44    -0.230880941933E+04   -0.39409E-05   -0.39555E-06  2570   0.183E-03
   1 F= -.23292216E+04 E0= -.23292211E+04  d E =-.105136E-02  mag=     2.0002
       N       E                     dE             d eps       ncg     rms          rms(c)
DAV:   1    -0.230879594195E+04    0.13473E-01   -0.21523E+00  4320   0.578E-01    0.319E-01
RMM:   2    -0.230879635429E+04   -0.41233E-03   -0.10653E-02  3942   0.392E-02    0.376E-01
RMM:   3    -0.230879586416E+04    0.49012E-03   -0.23868E-03  4752   0.174E-02    0.325E-01
RMM:   4    -0.230879534944E+04    0.51473E-03   -0.13937E-03  4116   0.133E-02    0.150E-01
RMM:   5    -0.230879512142E+04    0.22801E-03   -0.49295E-04  3667   0.950E-03    0.357E-02
RMM:   6    -0.230879512932E+04   -0.78906E-05   -0.66496E-05  2933   0.436E-03
   2 F= -.23292075E+04 E0= -.23292068E+04  d E =-.148128E-02  mag=     2.0001
       N       E                     dE             d eps       ncg     rms          rms(c)
DAV:   1    -0.230879531703E+04   -0.19561E-03   -0.85539E+00  4480   0.114E+00    0.622E-01
RMM:   2    -0.230879532585E+04   -0.88175E-05   -0.32746E-02  4214   0.747E-02    0.657E-01
RMM:   3    -0.230879456298E+04    0.76287E-03   -0.79902E-03  5591   0.330E-02    0.657E-01
RMM:   4    -0.230879222535E+04    0.23376E-02   -0.57007E-03  5063   0.267E-02    0.266E-01
RMM:   5    -0.230879148992E+04    0.73543E-03   -0.16084E-03  4530   0.165E-02    0.685E-02
RMM:   6    -0.230879154889E+04   -0.58975E-04   -0.19797E-04  3098   0.604E-03    0.906E-02
RMM:   7    -0.230879156556E+04   -0.16673E-04   -0.30399E-05  2881   0.337E-03    0.101E-01
RMM:   8    -0.230879153186E+04    0.33706E-04   -0.61606E-05  2923   0.337E-03    0.569E-02
RMM:   9    -0.230879151852E+04    0.13336E-04   -0.55657E-05  2944   0.348E-03    0.122E-02
RMM:  10    -0.230879152065E+04   -0.21314E-05   -0.94151E-06  2692   0.239E-03
   3 F= -.23292036E+04 E0= -.23292032E+04  d E =-.786025E-03  mag=     2.0000
       N       E                     dE             d eps       ncg     rms          rms(c)
DAV:   1    -0.230878901342E+04    0.25051E-02   -0.42513E+00  4480   0.934E-01    0.503E-01
RMM:   2    -0.230878838793E+04    0.62549E-03   -0.15138E-02  4088   0.504E-02    0.479E-01
RMM:   3    -0.230878921383E+04   -0.82590E-03   -0.55768E-03  5411   0.256E-02    0.604E-01
RMM:   4    -0.230878664131E+04    0.25725E-02   -0.33665E-03  4552   0.211E-02    0.137E-01
RMM:   5    -0.230878669656E+04   -0.55257E-04   -0.45756E-04  3324   0.112E-02    0.145E-01
RMM:   6    -0.230878663582E+04    0.60741E-04   -0.10408E-04  3049   0.495E-03    0.109E-01
RMM:   7    -0.230878656122E+04    0.74604E-04   -0.12502E-04  3026   0.488E-03    0.289E-02
RMM:   8    -0.230878657523E+04   -0.14007E-04   -0.24173E-05  2819   0.320E-03    0.357E-02
RMM:   9    -0.230878657689E+04   -0.16626E-05   -0.18648E-05  2572   0.216E-03
   4 F= -.23291984E+04 E0= -.23291979E+04  d E =-.944412E-03  mag=     2.0000
       N       E                     dE             d eps       ncg     rms          rms(c)
DAV:   1    -0.230879925053E+04   -0.12675E-01   -0.84998E+00  4480   0.131E+00    0.708E-01
RMM:   2    -0.230879650464E+04    0.27459E-02   -0.29141E-02  4225   0.698E-02    0.432E-01
RMM:   3    -0.230879589196E+04    0.61267E-03   -0.91166E-03  5494   0.344E-02    0.373E-01
RMM:   4    -0.230879453401E+04    0.13580E-02   -0.35628E-03  4834   0.224E-02    0.154E-01
RMM:   5    -0.230879493143E+04   -0.39742E-03   -0.81242E-04  3442   0.131E-02    0.332E-01
RMM:   6    -0.230879479717E+04    0.13425E-03   -0.11796E-04  3000   0.452E-03    0.288E-01
RMM:   7    -0.230879447306E+04    0.32411E-03   -0.52008E-04  3485   0.841E-03    0.158E-01
RMM:   8    -0.230879436689E+04    0.10617E-03   -0.37748E-04  3309   0.797E-03    0.483E-02
RMM:   9    -0.230879441142E+04   -0.44533E-04   -0.13598E-04  3032   0.523E-03    0.384E-02
RMM:  10    -0.230879440208E+04    0.93362E-05   -0.52142E-05  2818   0.375E-03
   5 F= -.23292070E+04 E0= -.23292064E+04  d E =-.118161E-02  mag=     2.0000
       N       E                     dE             d eps       ncg     rms          rms(c)
DAV:   1    -0.230879415652E+04    0.25490E-03   -0.39716E+00  4480   0.860E-01    0.520E-01
RMM:   2    -0.230879353216E+04    0.62437E-03   -0.16764E-02  4268   0.531E-02    0.370E-01
RMM:   3    -0.230879301826E+04    0.51389E-03   -0.46114E-03  5289   0.249E-02    0.441E-01
RMM:   4    -0.230879254707E+04    0.47119E-03   -0.29409E-03  4674   0.191E-02    0.344E-01
RMM:   5    -0.230879159876E+04    0.94830E-03   -0.16465E-03  4696   0.159E-02    0.105E-01
RMM:   6    -0.230879171108E+04   -0.11231E-03   -0.22979E-04  3067   0.641E-03    0.135E-01
RMM:   7    -0.230879174091E+04   -0.29835E-04   -0.66326E-05  2873   0.400E-03    0.132E-01
RMM:   8    -0.230879168130E+04    0.59615E-04   -0.25578E-04  3175   0.596E-03    0.279E-02
RMM:   9    -0.230879168214E+04   -0.84343E-06   -0.53102E-05  2846   0.388E-03
   6 F= -.23292023E+04 E0= -.23292019E+04  d E =-.655979E-03  mag=     2.0000
       N       E                     dE             d eps       ncg     rms          rms(c)
DAV:   1    -0.230882272058E+04   -0.31039E-01   -0.73640E+00  4480   0.104E+00    0.690E-01
RMM:   2    -0.230882325447E+04   -0.53389E-03   -0.25453E-02  4472   0.593E-02    0.567E-01
RMM:   3    -0.230882355799E+04   -0.30352E-03   -0.87529E-03  5448   0.346E-02    0.854E-01
RMM:   4    -0.230882046442E+04    0.30936E-02   -0.33764E-03  4863   0.212E-02    0.356E-01
RMM:   5    -0.230882051700E+04   -0.52577E-04   -0.31653E-03  4651   0.215E-02    0.460E-01
RMM:   6    -0.230881958087E+04    0.93613E-03   -0.16643E-03  4384   0.160E-02    0.120E-01
RMM:   7    -0.230881988370E+04   -0.30283E-03   -0.33995E-04  3249   0.824E-03    0.209E-01
RMM:   8    -0.230881978928E+04    0.94426E-04   -0.45824E-04  3343   0.862E-03    0.846E-02
RMM:   9    -0.230881978037E+04    0.89057E-05   -0.35434E-04  3284   0.768E-03    0.388E-02
RMM:  10    -0.230881978236E+04   -0.19886E-05   -0.57374E-05  2916   0.422E-03
   7 F= -.23292331E+04 E0= -.23292323E+04  d E =-.165518E-02  mag=     2.0000
       N       E                     dE             d eps       ncg     rms          rms(c)
DAV:   1    -0.230879408057E+04    0.25700E-01   -0.38282E+00  4640   0.684E-01    0.598E-01
RMM:   2    -0.230879696861E+04   -0.28880E-02   -0.20845E-02  4462   0.494E-02    0.535E-01
RMM:   3    -0.230879724025E+04   -0.27164E-03   -0.62481E-03  4739   0.324E-02    0.769E-01
RMM:   4    -0.230879527067E+04    0.19696E-02   -0.18095E-03  4235   0.144E-02    0.523E-01
RMM:   5    -0.230879502050E+04    0.25017E-03   -0.41205E-03  4964   0.247E-02    0.439E-01
RMM:   6    -0.230879354428E+04    0.14762E-02   -0.22646E-03  5152   0.179E-02    0.187E-01
RMM:   7    -0.230879387909E+04   -0.33481E-03   -0.41689E-04  3283   0.930E-03    0.211E-01
RMM:   8    -0.230879375913E+04    0.11995E-03   -0.49370E-04  3471   0.899E-03    0.800E-02
RMM:   9    -0.230879374270E+04    0.16433E-04   -0.28145E-04  3132   0.714E-03    0.356E-02
RMM:  10    -0.230879374158E+04    0.11213E-05   -0.28699E-05  2893   0.372E-03
   8 F= -.23292058E+04 E0= -.23292055E+04  d E =-.741848E-03  mag=     2.0000
       N       E                     dE             d eps       ncg     rms          rms(c)
DAV:   1    -0.230881175347E+04   -0.18011E-01   -0.78585E+00  4480   0.765E-01    0.853E-01
RMM:   2    -0.230881745719E+04   -0.57037E-02   -0.49439E-02  4760   0.737E-02    0.766E-01
RMM:   3    -0.230881671009E+04    0.74710E-03   -0.10361E-02  4957   0.416E-02    0.926E-01
RMM:   4    -0.230881485997E+04    0.18501E-02   -0.24034E-03  4489   0.152E-02    0.714E-01
RMM:   5    -0.230881289936E+04    0.19606E-02   -0.88740E-03  4583   0.354E-02    0.646E-01
RMM:   6    -0.230881117283E+04    0.17265E-02   -0.42992E-03  4735   0.282E-02    0.196E-01
RMM:   7    -0.230881165086E+04   -0.47803E-03   -0.99370E-04  4509   0.131E-02    0.345E-01
RMM:   8    -0.230881166382E+04   -0.12951E-04   -0.69053E-04  3663   0.108E-02    0.262E-01
RMM:   9    -0.230881146986E+04    0.19395E-03   -0.16269E-03  4039   0.160E-02    0.449E-02
RMM:  10    -0.230881149071E+04   -0.20851E-04   -0.24159E-04  3092   0.809E-03    0.266E-02
RMM:  11    -0.230881149646E+04   -0.57500E-05   -0.42011E-05  2945   0.337E-03
   9 F= -.23292237E+04 E0= -.23292230E+04  d E =-.144750E-02  mag=     2.0000
       N       E                     dE             d eps       ncg     rms          rms(c)
DAV:   1    -0.230879831254E+04    0.13178E-01   -0.39519E+00  4560   0.551E-01    0.636E-01
RMM:   2    -0.230880175362E+04   -0.34411E-02   -0.30133E-02  4959   0.605E-02    0.588E-01
RMM:   3    -0.230880251276E+04   -0.75915E-03   -0.79873E-03  5300   0.341E-02    0.916E-01
RMM:   4    -0.230879963397E+04    0.28788E-02   -0.18052E-03  4248   0.147E-02    0.604E-01
RMM:   5    -0.230879798174E+04    0.16522E-02   -0.48460E-03  4778   0.250E-02    0.400E-01
RMM:   6    -0.230879750092E+04    0.48083E-03   -0.25610E-03  4689   0.194E-02    0.191E-01
RMM:   7    -0.230879772247E+04   -0.22155E-03   -0.38601E-04  3377   0.856E-03    0.243E-01
RMM:   8    -0.230879761668E+04    0.10579E-03   -0.36631E-04  3216   0.770E-03    0.140E-01
RMM:   9    -0.230879756035E+04    0.56338E-04   -0.49215E-04  3520   0.872E-03    0.243E-02
RMM:  10    -0.230879756371E+04   -0.33601E-05   -0.62261E-05  2940   0.454E-03
  10 F= -.23292102E+04 E0= -.23292096E+04  d E =-.109949E-02  mag=     2.0000
       N       E                     dE             d eps       ncg     rms          rms(c)
DAV:   1    -0.230881556764E+04   -0.18007E-01   -0.72689E+00  4480   0.711E-01    0.614E-01
RMM:   2    -0.230881939706E+04   -0.38294E-02   -0.34949E-02  4939   0.601E-02    0.771E-01
RMM:   3    -0.230881711103E+04    0.22860E-02   -0.94444E-03  5418   0.346E-02    0.593E-01
RMM:   4    -0.230881498490E+04    0.21261E-02   -0.36911E-03  4883   0.222E-02    0.230E-01
RMM:   5    -0.230881460251E+04    0.38239E-03   -0.18226E-03  4935   0.159E-02    0.128E-01
RMM:   6    -0.230881477262E+04   -0.17011E-03   -0.32265E-04  3318   0.849E-03    0.191E-01
RMM:   7    -0.230881480911E+04   -0.36493E-04   -0.92921E-05  2945   0.443E-03    0.193E-01
RMM:   8    -0.230881472573E+04    0.83377E-04   -0.23600E-04  3145   0.610E-03    0.118E-01
RMM:   9    -0.230881467920E+04    0.46534E-04   -0.26105E-04  3296   0.683E-03    0.217E-02
RMM:  10    -0.230881468728E+04   -0.80819E-05   -0.30169E-05  2915   0.387E-03
  11 F= -.23292264E+04 E0= -.23292259E+04  d E =-.988233E-03  mag=     2.0000
       N       E                     dE             d eps       ncg     rms          rms(c)
DAV:   1    -0.230881865783E+04   -0.39786E-02   -0.34915E+00  4480   0.526E-01    0.444E-01
RMM:   2    -0.230881905522E+04   -0.39738E-03   -0.14750E-02  4728   0.413E-02    0.318E-01
RMM:   3    -0.230881952641E+04   -0.47119E-03   -0.37636E-03  4899   0.228E-02    0.475E-01
RMM:   4    -0.230881834614E+04    0.11803E-02   -0.17598E-03  4494   0.147E-02    0.192E-01
RMM:   5    -0.230881806772E+04    0.27842E-03   -0.91320E-04  3968   0.113E-02    0.104E-01
RMM:   6    -0.230881802099E+04    0.46730E-04   -0.16035E-04  3125   0.662E-03    0.551E-02
RMM:   7    -0.230881802176E+04   -0.77074E-06   -0.63452E-05  2935   0.390E-03
  12 F= -.23292320E+04 E0= -.23292316E+04  d E =-.785093E-03  mag=     2.0000
       N       E                     dE             d eps       ncg     rms          rms(c)
DAV:   1    -0.230879505968E+04    0.22961E-01   -0.74763E+00  4480   0.788E-01    0.628E-01
RMM:   2    -0.230879668280E+04   -0.16231E-02   -0.30173E-02  4404   0.551E-02    0.383E-01
RMM:   3    -0.230879919178E+04   -0.25090E-02   -0.85419E-03  5203   0.354E-02    0.657E-01
RMM:   4    -0.230879603239E+04    0.31594E-02   -0.40755E-03  4636   0.231E-02    0.342E-01
RMM:   5    -0.230879602891E+04    0.34764E-05   -0.12328E-03  4274   0.129E-02    0.283E-01
RMM:   6    -0.230879600558E+04    0.23330E-04   -0.27897E-04  3126   0.760E-03    0.280E-01
RMM:   7    -0.230879564849E+04    0.35709E-03   -0.67597E-04  3828   0.102E-02    0.115E-01
RMM:   8    -0.230879568666E+04   -0.38171E-04   -0.25050E-04  3210   0.738E-03    0.104E-01
RMM:   9    -0.230879568060E+04    0.60535E-05   -0.14994E-04  2991   0.573E-03    0.534E-02
RMM:  10    -0.230879567601E+04    0.45888E-05   -0.10370E-04  2939   0.465E-03    0.132E-02
RMM:  11    -0.230879568076E+04   -0.47408E-05   -0.10667E-05  2830   0.252E-03
  13 F= -.23292056E+04 E0= -.23292049E+04  d E =-.142217E-02  mag=     2.0000
       N       E                     dE             d eps       ncg     rms          rms(c)
DAV:   1    -0.230879407840E+04    0.15976E-02   -0.22040E+00  4480   0.501E-01    0.409E-01
RMM:   2    -0.230879387925E+04    0.19914E-03   -0.13638E-02  4092   0.415E-02    0.241E-01
RMM:   3    -0.230879403072E+04   -0.15147E-03   -0.33820E-03  4683   0.245E-02    0.284E-01
RMM:   4    -0.230879372624E+04    0.30448E-03   -0.12979E-03  3981   0.144E-02    0.277E-01
RMM:   5    -0.230879333460E+04    0.39164E-03   -0.58630E-04  3569   0.935E-03    0.721E-02
RMM:   6    -0.230879332988E+04    0.47224E-05   -0.11666E-04  3059   0.522E-03    0.849E-02
RMM:   7    -0.230879330364E+04    0.26239E-04   -0.70541E-05  2933   0.404E-03    0.309E-02
RMM:   8    -0.230879330296E+04    0.67501E-06   -0.23766E-05  2884   0.306E-03
  14 F= -.23292060E+04 E0= -.23292055E+04  d E =-.102372E-02  mag=     2.0000
       N       E                     dE             d eps       ncg     rms          rms(c)
DAV:   1    -0.230881430397E+04   -0.21000E-01   -0.12796E+00  4720   0.489E-01    0.562E-01
RMM:   2    -0.230881255521E+04    0.17488E-02   -0.19600E-02  4437   0.506E-02    0.516E-01
RMM:   3    -0.230881221562E+04    0.33959E-03   -0.66145E-03  5200   0.280E-02    0.626E-01
RMM:   4    -0.230881017454E+04    0.20411E-02   -0.32467E-03  4703   0.211E-02    0.286E-01
RMM:   5    -0.230880947455E+04    0.69998E-03   -0.11820E-03  4309   0.142E-02    0.897E-02
RMM:   6    -0.230880946089E+04    0.13661E-04   -0.22811E-04  3144   0.622E-03    0.958E-02
RMM:   7    -0.230880945425E+04    0.66486E-05   -0.70835E-05  2915   0.478E-03
  15 F= -.23292211E+04 E0= -.23292206E+04  d E =-.105409E-02  mag=     2.0000
       N       E                     dE             d eps       ncg     rms          rms(c)
DAV:   1    -0.230880330191E+04    0.61590E-02   -0.64727E-01  5200   0.338E-01    0.470E-01
RMM:   2    -0.230880118430E+04    0.21176E-02   -0.16409E-02  4466   0.458E-02    0.384E-01
RMM:   3    -0.230879979730E+04    0.13870E-02   -0.39191E-03  4719   0.245E-02    0.299E-01
RMM:   4    -0.230880008688E+04   -0.28958E-03   -0.21089E-03  4239   0.162E-02    0.401E-01
RMM:   5    -0.230879899323E+04    0.10937E-02   -0.84795E-04  3995   0.119E-02    0.804E-02
RMM:   6    -0.230879895006E+04    0.43164E-04   -0.18260E-04  3123   0.584E-03    0.711E-02
RMM:   7    -0.230879893425E+04    0.15817E-04   -0.59071E-05  2909   0.439E-03    0.510E-02
RMM:   8    -0.230879893110E+04    0.31466E-05   -0.28197E-05  2720   0.274E-03
  16 F= -.23292114E+04 E0= -.23292109E+04  d E =-.105114E-02  mag=     2.0000
       N       E                     dE             d eps       ncg     rms          rms(c)
DAV:   1    -0.230881151719E+04   -0.12583E-01   -0.12456E+00  4880   0.470E-01    0.505E-01
RMM:   2    -0.230880996999E+04    0.15472E-02   -0.18236E-02  4554   0.472E-02    0.408E-01
RMM:   3    -0.230880796206E+04    0.20079E-02   -0.43221E-03  4816   0.274E-02    0.215E-01
RMM:   4    -0.230880765583E+04    0.30623E-03   -0.95036E-04  3858   0.116E-02    0.136E-01
RMM:   5    -0.230880803598E+04   -0.38015E-03   -0.77871E-04  3347   0.116E-02    0.271E-01
RMM:   6    -0.230880755193E+04    0.48405E-03   -0.23163E-04  3167   0.725E-03    0.475E-02
RMM:   7    -0.230880754566E+04    0.62705E-05   -0.51683E-05  2852   0.369E-03
  17 F= -.23292194E+04 E0= -.23292189E+04  d E =-.103835E-02  mag=     2.0000
       N       E                     dE             d eps       ncg     rms          rms(c)
DAV:   1    -0.230880877265E+04   -0.12207E-02   -0.61098E-01  4480   0.326E-01    0.291E-01
RMM:   2    -0.230880848017E+04    0.29248E-03   -0.37064E-03  3791   0.231E-02    0.201E-01
RMM:   3    -0.230880855531E+04   -0.75144E-04   -0.12592E-03  4081   0.131E-02    0.244E-01
RMM:   4    -0.230880849590E+04    0.59412E-04   -0.91358E-04  3613   0.113E-02    0.231E-01
RMM:   5    -0.230880811021E+04    0.38570E-03   -0.40289E-04  3502   0.882E-03    0.345E-02
RMM:   6    -0.230880811879E+04   -0.85836E-05   -0.35938E-05  2789   0.328E-03
  18 F= -.23292204E+04 E0= -.23292198E+04  d E =-.113528E-02  mag=     2.0000
       N       E                     dE             d eps       ncg     rms          rms(c)
DAV:   1    -0.230880969358E+04   -0.15834E-02   -0.12127E+00  4480   0.453E-01    0.438E-01
RMM:   2    -0.230880908037E+04    0.61320E-03   -0.68015E-03  4205   0.341E-02    0.311E-01
RMM:   3    -0.230881018445E+04   -0.11041E-02   -0.36251E-03  4972   0.221E-02    0.553E-01
RMM:   4    -0.230880853620E+04    0.16483E-02   -0.18784E-03  4249   0.158E-02    0.194E-01
RMM:   5    -0.230880811344E+04    0.42276E-03   -0.85772E-04  3878   0.122E-02    0.589E-02
RMM:   6    -0.230880816762E+04   -0.54178E-04   -0.10839E-04  3049   0.492E-03    0.957E-02
RMM:   7    -0.230880818917E+04   -0.21550E-04   -0.26313E-05  2754   0.309E-03    0.102E-01
RMM:   8    -0.230880816160E+04    0.27566E-04   -0.67436E-05  2858   0.336E-03    0.547E-02
RMM:   9    -0.230880815009E+04    0.11511E-04   -0.35599E-05  2746   0.270E-03    0.971E-03
RMM:  10    -0.230880815085E+04   -0.75821E-06   -0.93889E-06  2520   0.178E-03
  19 F= -.23292202E+04 E0= -.23292197E+04  d E =-.957426E-03  mag=     2.0000
       N       E                     dE             d eps       ncg     rms          rms(c)
DAV:   1    -0.230880796227E+04    0.18782E-03   -0.60769E-01  4800   0.333E-01    0.260E-01
RMM:   2    -0.230880783403E+04    0.12824E-03   -0.25169E-03  3571   0.201E-02    0.164E-01
RMM:   3    -0.230880787992E+04   -0.45886E-04   -0.92751E-04  4343   0.116E-02    0.137E-01
RMM:   4    -0.230880767483E+04    0.20509E-03   -0.39291E-04  3490   0.855E-03    0.593E-02
RMM:   5    -0.230880766382E+04    0.11014E-04   -0.13367E-04  3009   0.505E-03    0.582E-02
RMM:   6    -0.230880768012E+04   -0.16307E-04   -0.65185E-05  2749   0.407E-03    0.452E-02
RMM:   7    -0.230880767912E+04    0.10071E-05   -0.22844E-05  2487   0.253E-03
  20 F= -.23292199E+04 E0= -.23292194E+04  d E =-.100040E-02  mag=     2.0000
       N       E                     dE             d eps       ncg     rms          rms(c)
DAV:   1    -0.230880743941E+04    0.24072E-03   -0.12090E+00  4560   0.476E-01    0.334E-01
RMM:   2    -0.230880757938E+04   -0.13997E-03   -0.51998E-03  3761   0.274E-02    0.203E-01
RMM:   3    -0.230880786442E+04   -0.28505E-03   -0.11247E-03  4610   0.147E-02    0.284E-01
RMM:   4    -0.230880749656E+04    0.36787E-03   -0.26740E-04  3121   0.677E-03    0.126E-01
RMM:   5    -0.230880755432E+04   -0.57760E-04   -0.17554E-04  3129   0.610E-03    0.165E-01
RMM:   6    -0.230880741517E+04    0.13915E-03   -0.25839E-04  3218   0.647E-03    0.581E-02
RMM:   7    -0.230880742500E+04   -0.98275E-05   -0.10970E-04  2942   0.470E-03    0.745E-02
RMM:   8    -0.230880742728E+04   -0.22866E-05   -0.71691E-05  2818   0.399E-03
  21 F= -.23292195E+04 E0= -.23292190E+04  d E =-.109715E-02  mag=     2.0000
       N       E                     dE             d eps       ncg     rms          rms(c)
DAV:   1    -0.230880896136E+04   -0.15364E-02   -0.63054E-01  4720   0.329E-01    0.348E-01
RMM:   2    -0.230880841491E+04    0.54645E-03   -0.81615E-03  4286   0.319E-02    0.306E-01
RMM:   3    -0.230880787625E+04    0.53866E-03   -0.21740E-03  4282   0.179E-02    0.276E-01
RMM:   4    -0.230880788041E+04   -0.41655E-05   -0.13144E-03  3777   0.133E-02    0.298E-01
RMM:   5    -0.230880737984E+04    0.50058E-03   -0.45445E-04  3545   0.920E-03    0.116E-01
RMM:   6    -0.230880737567E+04    0.41685E-05   -0.14275E-04  3022   0.531E-03    0.115E-01
RMM:   7    -0.230880732312E+04    0.52551E-04   -0.12302E-04  2980   0.507E-03    0.667E-02
RMM:   8    -0.230880732249E+04    0.63056E-06   -0.53522E-05  2828   0.347E-03
  22 F= -.23292189E+04 E0= -.23292183E+04  d E =-.112193E-02  mag=     2.0000
       N       E                     dE             d eps       ncg     rms          rms(c)
DAV:   1    -0.230879541506E+04    0.11908E-01   -0.13051E+00  5120   0.472E-01    0.661E-01
RMM:   2    -0.230879134706E+04    0.40680E-02   -0.32148E-02  4574   0.648E-02    0.546E-01
RMM:   3    -0.230878893634E+04    0.24107E-02   -0.79783E-03  4912   0.356E-02    0.481E-01
RMM:   4    -0.230878876776E+04    0.16858E-03   -0.42195E-03  4841   0.230E-02    0.498E-01
RMM:   5    -0.230878698077E+04    0.17870E-02   -0.16490E-03  4669   0.163E-02    0.104E-01
RMM:   6    -0.230878690185E+04    0.78915E-04   -0.32360E-04  3265   0.732E-03    0.840E-02
RMM:   7    -0.230878688948E+04    0.12371E-04   -0.85269E-05  2995   0.531E-03    0.705E-02
RMM:   8    -0.230878687191E+04    0.17576E-04   -0.42979E-05  2853   0.322E-03    0.311E-02
RMM:   9    -0.230878687704E+04   -0.51289E-05   -0.14216E-05  2578   0.238E-03
  23 F= -.23291997E+04 E0= -.23291992E+04  d E =-.984776E-03  mag=     2.0000
       N       E                     dE             d eps       ncg     rms          rms(c)
DAV:   1    -0.230882318434E+04   -0.36312E-01   -0.63050E-01  4880   0.347E-01    0.414E-01
RMM:   2    -0.230882235684E+04    0.82750E-03   -0.10723E-02  4324   0.376E-02    0.423E-01
RMM:   3    -0.230882175871E+04    0.59814E-03   -0.37241E-03  4805   0.210E-02    0.426E-01
RMM:   4    -0.230882082404E+04    0.93467E-03   -0.18696E-03  4147   0.163E-02    0.243E-01
RMM:   5    -0.230882043089E+04    0.39314E-03   -0.57712E-04  3756   0.102E-02    0.113E-01
RMM:   6    -0.230882041468E+04    0.16214E-04   -0.15903E-04  3047   0.541E-03    0.110E-01
RMM:   7    -0.230882036651E+04    0.48170E-04   -0.10643E-04  2954   0.495E-03    0.691E-02
RMM:   8    -0.230882036066E+04    0.58454E-05   -0.56228E-05  2830   0.339E-03
  24 F= -.23292328E+04 E0= -.23292323E+04  d E =-.892386E-03  mag=     2.0000
       N       E                     dE             d eps       ncg     rms          rms(c)
DAV:   1    -0.230879783523E+04    0.22531E-01   -0.11975E+00  4480   0.455E-01    0.422E-01
RMM:   2    -0.230879755848E+04    0.27676E-03   -0.47365E-03  3878   0.293E-02    0.404E-01
RMM:   3    -0.230879813428E+04   -0.57580E-03   -0.32483E-03  4994   0.185E-02    0.460E-01
RMM:   4    -0.230879687201E+04    0.12623E-02   -0.16127E-03  4001   0.163E-02    0.205E-01
RMM:   5    -0.230879674223E+04    0.12978E-03   -0.41133E-04  3261   0.966E-03    0.165E-01
RMM:   6    -0.230879669014E+04    0.52094E-04   -0.13399E-04  3005   0.499E-03    0.140E-01
RMM:   7    -0.230879657565E+04    0.11448E-03   -0.24950E-04  3218   0.662E-03    0.405E-02
RMM:   8    -0.230879660247E+04   -0.26815E-04   -0.49433E-05  2844   0.404E-03    0.441E-02
RMM:   9    -0.230879660218E+04    0.28688E-06   -0.23886E-05  2577   0.247E-03
  25 F= -.23292085E+04 E0= -.23292079E+04  d E =-.122764E-02  mag=     2.0000
