       N       E                     dE             d eps       ncg     rms          rms(c)
DAV:   1     0.125363654383E+05    0.12536E+05   -0.81893E+05  4384   0.143E+03
DAV:   2    -0.107600739669E+04   -0.13612E+05   -0.13053E+05  5368   0.329E+02
DAV:   3    -0.247209734408E+04   -0.13961E+04   -0.13851E+04  5248   0.109E+02
DAV:   4    -0.251060082456E+04   -0.38503E+02   -0.38330E+02  6280   0.252E+01
DAV:   5    -0.251139152602E+04   -0.79070E+00   -0.78972E+00  5472   0.294E+00    0.171E+02
RMM:   6    -0.146805179923E+04    0.10433E+04   -0.19537E+03  4345   0.393E+01    0.736E+01
RMM:   7    -0.164100049792E+04   -0.17295E+03   -0.28605E+02  4982   0.143E+01    0.523E+01
RMM:   8    -0.168108620278E+04   -0.40086E+02   -0.55264E+01  4778   0.758E+00    0.365E+01
RMM:   9    -0.183007208474E+04   -0.14899E+03   -0.76871E+01  4553   0.895E+00    0.253E+01
RMM:  10    -0.196059957112E+04   -0.13053E+03   -0.50776E+01  4599   0.692E+00    0.165E+01
RMM:  11    -0.207679694207E+04   -0.11620E+03   -0.59460E+01  4358   0.582E+00    0.129E+01
RMM:  12    -0.225111055488E+04   -0.17431E+03   -0.17768E+02  4342   0.900E+00    0.625E+00
RMM:  13    -0.229115976362E+04   -0.40049E+02   -0.43347E+01  4365   0.461E+00    0.426E+00
RMM:  14    -0.229918267073E+04   -0.80229E+01   -0.92913E+00  4569   0.273E+00    0.625E+00
RMM:  15    -0.229927059947E+04   -0.87929E-01   -0.15687E+00  5049   0.104E+00    0.639E+00
RMM:  16    -0.229899831089E+04    0.27229E+00   -0.75660E-01  4368   0.484E-01    0.658E+00
RMM:  17    -0.229771887086E+04    0.12794E+01   -0.25395E+00  4477   0.769E-01    0.486E+00
RMM:  18    -0.230177223336E+04   -0.40534E+01   -0.15583E+00  4427   0.884E-01    0.438E+00
RMM:  19    -0.230189318530E+04   -0.12095E+00   -0.28278E-01  4421   0.520E-01    0.396E+00
RMM:  20    -0.230209861160E+04   -0.20543E+00   -0.10977E-01  4613   0.205E-01    0.377E+00
RMM:  21    -0.230239541966E+04   -0.29681E+00   -0.26292E-01  4402   0.282E-01    0.357E+00
RMM:  22    -0.230268352419E+04   -0.28810E+00   -0.62433E-01  4379   0.451E-01    0.368E+00
RMM:  23    -0.230277823693E+04   -0.94713E-01   -0.23301E-01  4650   0.372E-01    0.277E+00
RMM:  24    -0.230285286864E+04   -0.74632E-01   -0.99229E-02  4772   0.255E-01    0.194E+00
RMM:  25    -0.230290798154E+04   -0.55113E-01   -0.30028E-02  4829   0.142E-01    0.139E+00
RMM:  26    -0.230296570275E+04   -0.57721E-01   -0.29429E-02  4564   0.114E-01    0.448E-01
RMM:  27    -0.230298191097E+04   -0.16208E-01   -0.76348E-03  4531   0.725E-02    0.214E-01
RMM:  28    -0.230299342943E+04   -0.11518E-01   -0.58394E-03  4409   0.478E-02    0.656E-02
RMM:  29    -0.230299927034E+04   -0.58409E-02   -0.31702E-03  4617   0.428E-02    0.889E-02
RMM:  30    -0.230300141951E+04   -0.21492E-02   -0.85760E-04  4395   0.254E-02    0.110E-01
RMM:  31    -0.230300298847E+04   -0.15690E-02   -0.40192E-04  3983   0.135E-02    0.578E-02
RMM:  32    -0.230300347186E+04   -0.48339E-03   -0.13105E-04  3677   0.101E-02    0.266E-02
RMM:  33    -0.230300364022E+04   -0.16835E-03   -0.78600E-05  3487   0.595E-03    0.130E-02
RMM:  34    -0.230300374910E+04   -0.10889E-03   -0.27937E-05  3044   0.513E-03    0.121E-02
RMM:  35    -0.230300378757E+04   -0.38462E-04   -0.14713E-05  2897   0.346E-03    0.483E-03
RMM:  36    -0.230300379693E+04   -0.93601E-05   -0.42128E-06  2777   0.299E-03
   1 F= -.23230378E+04 E0= -.23230378E+04  d E =-.232304E+04  mag=    -0.0005
       N       E                     dE             d eps       ncg     rms          rms(c)
DAV:   1    -0.230301261081E+04   -0.88232E-02   -0.54876E+00  4928   0.240E+00    0.873E-01
RMM:   2    -0.230306350392E+04   -0.50893E-01   -0.57352E-01  5829   0.524E-01    0.583E-01
RMM:   3    -0.230305935519E+04    0.41487E-02   -0.46780E-02  5039   0.171E-01    0.334E-01
RMM:   4    -0.230305724563E+04    0.21096E-02   -0.63687E-03  4578   0.518E-02    0.171E-01
RMM:   5    -0.230305653641E+04    0.70922E-03   -0.22657E-03  5064   0.422E-02    0.487E-02
RMM:   6    -0.230305645968E+04    0.76727E-04   -0.35607E-04  5108   0.167E-02    0.269E-02
RMM:   7    -0.230305643241E+04    0.27276E-04   -0.60502E-05  3429   0.700E-03    0.154E-02
RMM:   8    -0.230305642136E+04    0.11052E-04   -0.30666E-05  3064   0.538E-03    0.708E-03
RMM:   9    -0.230305642052E+04    0.83659E-06   -0.87825E-06  2798   0.418E-03
   2 F= -.23230913E+04 E0= -.23230913E+04  d E =-.534691E-01  mag=    -0.0001
       N       E                     dE             d eps       ncg     rms          rms(c)
DAV:   1    -0.230305636404E+04    0.57319E-04   -0.44201E-02  5200   0.217E-01    0.781E-02
RMM:   2    -0.230305675794E+04   -0.39390E-03   -0.44945E-03  5802   0.469E-02    0.509E-02
RMM:   3    -0.230305673125E+04    0.26691E-04   -0.36352E-04  3449   0.152E-02    0.307E-02
RMM:   4    -0.230305671384E+04    0.17404E-04   -0.51686E-05  3070   0.561E-03    0.156E-02
RMM:   5    -0.230305670851E+04    0.53293E-05   -0.22492E-05  2923   0.517E-03
   3 F= -.23230916E+04 E0= -.23230916E+04  d E =-.538300E-01  mag=    -0.0000
       N       E                     dE             d eps       ncg     rms          rms(c)
DAV:   1    -0.230306993482E+04   -0.13221E-01   -0.58538E+00  4480   0.245E+00    0.783E-01
RMM:   2    -0.230309473329E+04   -0.24798E-01   -0.27426E-01  5633   0.447E-01    0.521E-01
RMM:   3    -0.230309041155E+04    0.43217E-02   -0.19395E-02  5179   0.135E-01    0.282E-01
RMM:   4    -0.230308873901E+04    0.16725E-02   -0.28003E-03  4823   0.404E-02    0.133E-01
RMM:   5    -0.230308840625E+04    0.33276E-03   -0.15735E-03  4831   0.335E-02    0.294E-02
RMM:   6    -0.230308839273E+04    0.13519E-04   -0.16678E-04  4403   0.151E-02    0.178E-02
RMM:   7    -0.230308838333E+04    0.93952E-05   -0.20448E-05  2936   0.399E-03
   4 F= -.23231239E+04 E0= -.23231239E+04  d E =-.322639E-01  mag=    -0.0000
       N       E                     dE             d eps       ncg     rms          rms(c)
DAV:   1    -0.230308748933E+04    0.90340E-03   -0.14992E+00  4640   0.124E+00    0.395E-01
RMM:   2    -0.230309375900E+04   -0.62697E-02   -0.69503E-02  5576   0.225E-01    0.265E-01
RMM:   3    -0.230309270320E+04    0.10558E-02   -0.48928E-03  5082   0.689E-02    0.145E-01
RMM:   4    -0.230309226186E+04    0.44134E-03   -0.71796E-04  4658   0.203E-02    0.681E-02
RMM:   5    -0.230309217109E+04    0.90761E-04   -0.41664E-04  4581   0.174E-02    0.148E-02
RMM:   6    -0.230309216722E+04    0.38755E-05   -0.42713E-05  3162   0.838E-03
   5 F= -.23231280E+04 E0= -.23231280E+04  d E =-.363260E-01  mag=    -0.0000
       N       E                     dE             d eps       ncg     rms          rms(c)
DAV:   1    -0.230309398954E+04   -0.18184E-02   -0.43873E+00  4448   0.208E+00    0.513E-01
RMM:   2    -0.230311534756E+04   -0.21358E-01   -0.23529E-01  5658   0.368E-01    0.284E-01
RMM:   3    -0.230311467987E+04    0.66769E-03   -0.14858E-02  4913   0.107E-01    0.188E-01
RMM:   4    -0.230311421451E+04    0.46535E-03   -0.19058E-03  4783   0.307E-02    0.123E-01
RMM:   5    -0.230311394827E+04    0.26624E-03   -0.10315E-03  4753   0.273E-02    0.379E-02
RMM:   6    -0.230311392460E+04    0.23676E-04   -0.13161E-04  4097   0.114E-02    0.133E-02
RMM:   7    -0.230311391987E+04    0.47265E-05   -0.16202E-05  2872   0.434E-03
   6 F= -.23231501E+04 E0= -.23231501E+04  d E =-.221876E-01  mag=    -0.0000
       N       E                     dE             d eps       ncg     rms          rms(c)
DAV:   1    -0.230310692982E+04    0.69948E-02   -0.24505E+00  4480   0.155E+00    0.384E-01
RMM:   2    -0.230311882129E+04   -0.11891E-01   -0.13124E-01  5672   0.275E-01    0.212E-01
RMM:   3    -0.230311846724E+04    0.35406E-03   -0.83658E-03  4927   0.812E-02    0.141E-01
RMM:   4    -0.230311820453E+04    0.26270E-03   -0.10759E-03  4677   0.231E-02    0.925E-02
RMM:   5    -0.230311805107E+04    0.15346E-03   -0.59188E-04  4562   0.208E-02    0.282E-02
RMM:   6    -0.230311803651E+04    0.14565E-04   -0.74723E-05  3621   0.892E-03    0.102E-02
RMM:   7    -0.230311803408E+04    0.24232E-05   -0.11166E-05  2821   0.408E-03
   7 F= -.23231546E+04 E0= -.23231546E+04  d E =-.266127E-01  mag=    -0.0000
       N       E                     dE             d eps       ncg     rms          rms(c)
DAV:   1    -0.230312622013E+04   -0.81836E-02   -0.35242E+00  4400   0.180E+00    0.413E-01
RMM:   2    -0.230313554765E+04   -0.93275E-02   -0.10481E-01  5503   0.297E-01    0.235E-01
RMM:   3    -0.230313494195E+04    0.60570E-03   -0.57891E-03  5135   0.835E-02    0.172E-01
RMM:   4    -0.230313449039E+04    0.45155E-03   -0.10664E-03  4930   0.261E-02    0.109E-01
RMM:   5    -0.230313432031E+04    0.17008E-03   -0.81247E-04  4627   0.234E-02    0.264E-02
RMM:   6    -0.230313430832E+04    0.11990E-04   -0.95511E-05  3495   0.109E-02    0.137E-02
RMM:   7    -0.230313430308E+04    0.52370E-05   -0.10166E-05  2822   0.329E-03
   8 F= -.23231710E+04 E0= -.23231710E+04  d E =-.163995E-01  mag=    -0.0000
       N       E                     dE             d eps       ncg     rms          rms(c)
DAV:   1    -0.230313222937E+04    0.20789E-02   -0.30674E+00  4400   0.167E+00    0.385E-01
RMM:   2    -0.230314032805E+04   -0.80987E-02   -0.91201E-02  5503   0.274E-01    0.219E-01
RMM:   3    -0.230313979441E+04    0.53364E-03   -0.49518E-03  5114   0.783E-02    0.161E-01
RMM:   4    -0.230313940383E+04    0.39058E-03   -0.93483E-04  4908   0.244E-02    0.102E-01
RMM:   5    -0.230313924926E+04    0.15457E-03   -0.71931E-04  4556   0.221E-02    0.245E-02
RMM:   6    -0.230313923906E+04    0.10194E-04   -0.82862E-05  3449   0.103E-02    0.130E-02
RMM:   7    -0.230313923446E+04    0.46068E-05   -0.92541E-06  2812   0.314E-03
   9 F= -.23231760E+04 E0= -.23231760E+04  d E =-.214430E-01  mag=    -0.0000
       N       E                     dE             d eps       ncg     rms          rms(c)
DAV:   1    -0.230313732504E+04    0.19140E-02   -0.41584E+00  4416   0.195E+00    0.476E-01
RMM:   2    -0.230315964053E+04   -0.22315E-01   -0.24021E-01  5783   0.364E-01    0.326E-01
RMM:   3    -0.230315870338E+04    0.93715E-03   -0.15855E-02  5107   0.982E-02    0.201E-01
RMM:   4    -0.230315818754E+04    0.51583E-03   -0.18257E-03  4723   0.274E-02    0.123E-01
RMM:   5    -0.230315796693E+04    0.22061E-03   -0.97864E-04  4669   0.261E-02    0.385E-02
RMM:   6    -0.230315793735E+04    0.29579E-04   -0.12851E-04  3934   0.123E-02    0.164E-02
RMM:   7    -0.230315793224E+04    0.51120E-05   -0.17640E-05  2860   0.415E-03
  10 F= -.23231954E+04 E0= -.23231954E+04  d E =-.193975E-01  mag=    -0.0000
       N       E                     dE             d eps       ncg     rms          rms(c)
DAV:   1    -0.230312865744E+04    0.29280E-01   -0.73241E+00  4384   0.259E+00    0.633E-01
RMM:   2    -0.230316817540E+04   -0.39518E-01   -0.42556E-01  5723   0.483E-01    0.435E-01
RMM:   3    -0.230316640747E+04    0.17679E-02   -0.28043E-02  5077   0.132E-01    0.265E-01
RMM:   4    -0.230316550954E+04    0.89792E-03   -0.32395E-03  4735   0.369E-02    0.162E-01
RMM:   5    -0.230316511370E+04    0.39584E-03   -0.17045E-03  4689   0.347E-02    0.501E-02
RMM:   6    -0.230316506467E+04    0.49036E-04   -0.22889E-04  4411   0.164E-02    0.218E-02
RMM:   7    -0.230316505705E+04    0.76184E-05   -0.31660E-05  3072   0.485E-03
  11 F= -.23232034E+04 E0= -.23232034E+04  d E =-.274089E-01  mag=    -0.0000
       N       E                     dE             d eps       ncg     rms          rms(c)
DAV:   1    -0.230314702956E+04    0.18035E-01   -0.49103E+00  4400   0.213E+00    0.638E-01
RMM:   2    -0.230318459046E+04   -0.37561E-01   -0.39286E-01  5840   0.442E-01    0.504E-01
RMM:   3    -0.230318081384E+04    0.37766E-02   -0.25983E-02  5054   0.116E-01    0.229E-01
RMM:   4    -0.230318009704E+04    0.71680E-03   -0.30338E-03  4578   0.303E-02    0.131E-01
RMM:   5    -0.230317986458E+04    0.23246E-03   -0.11114E-03  4693   0.287E-02    0.325E-02
RMM:   6    -0.230317984982E+04    0.14758E-04   -0.15002E-04  3920   0.124E-02    0.174E-02
RMM:   7    -0.230317984246E+04    0.73611E-05   -0.16564E-05  2872   0.385E-03
  12 F= -.23232184E+04 E0= -.23232184E+04  d E =-.149435E-01  mag=    -0.0000
       N       E                     dE             d eps       ncg     rms          rms(c)
DAV:   1    -0.230314893643E+04    0.30913E-01   -0.54579E+00  4400   0.225E+00    0.671E-01
RMM:   2    -0.230319044934E+04   -0.41513E-01   -0.43513E-01  5845   0.465E-01    0.524E-01
RMM:   3    -0.230318634591E+04    0.41034E-02   -0.28942E-02  5089   0.122E-01    0.240E-01
RMM:   4    -0.230318554508E+04    0.80083E-03   -0.33614E-03  4592   0.318E-02    0.138E-01
RMM:   5    -0.230318527568E+04    0.26940E-03   -0.12337E-03  4716   0.301E-02    0.344E-02
RMM:   6    -0.230318525749E+04    0.18183E-04   -0.16487E-04  4015   0.130E-02    0.184E-02
RMM:   7    -0.230318524860E+04    0.88890E-05   -0.18875E-05  2910   0.396E-03
  13 F= -.23232239E+04 E0= -.23232239E+04  d E =-.204628E-01  mag=    -0.0000
       N       E                     dE             d eps       ncg     rms          rms(c)
DAV:   1    -0.230317073448E+04    0.14523E-01   -0.40286E+00  4400   0.193E+00    0.622E-01
RMM:   2    -0.230320713236E+04   -0.36398E-01   -0.37853E-01  5817   0.419E-01    0.554E-01
RMM:   3    -0.230320166735E+04    0.54650E-02   -0.25042E-02  4979   0.111E-01    0.229E-01
RMM:   4    -0.230320099128E+04    0.67607E-03   -0.31584E-03  4558   0.320E-02    0.130E-01
RMM:   5    -0.230320076748E+04    0.22381E-03   -0.10068E-03  4564   0.280E-02    0.324E-02
RMM:   6    -0.230320075779E+04    0.96899E-05   -0.17165E-04  3945   0.117E-02    0.181E-02
RMM:   7    -0.230320074975E+04    0.80362E-05   -0.19215E-05  2890   0.445E-03
  14 F= -.23232393E+04 E0= -.23232393E+04  d E =-.154523E-01  mag=    -0.0000
       N       E                     dE             d eps       ncg     rms          rms(c)
DAV:   1    -0.230318921571E+04    0.11542E-01   -0.20037E+00  4416   0.136E+00    0.437E-01
RMM:   2    -0.230320692125E+04   -0.17706E-01   -0.18449E-01  5842   0.295E-01    0.390E-01
RMM:   3    -0.230320456426E+04    0.23570E-02   -0.12436E-02  4964   0.789E-02    0.162E-01
RMM:   4    -0.230320422510E+04    0.33916E-03   -0.15535E-03  4502   0.224E-02    0.921E-02
RMM:   5    -0.230320411182E+04    0.11328E-03   -0.50343E-04  4462   0.199E-02    0.235E-02
RMM:   6    -0.230320410566E+04    0.61668E-05   -0.80216E-05  3291   0.841E-03
  15 F= -.23232426E+04 E0= -.23232426E+04  d E =-.187568E-01  mag=    -0.0000
       N       E                     dE             d eps       ncg     rms          rms(c)
DAV:   1    -0.230317162450E+04    0.32487E-01   -0.48371E+00  4384   0.219E+00    0.656E-01
RMM:   2    -0.230322288264E+04   -0.51258E-01   -0.54648E-01  5886   0.475E-01    0.481E-01
RMM:   3    -0.230322038426E+04    0.24984E-02   -0.39735E-02  4965   0.125E-01    0.235E-01
RMM:   4    -0.230321975659E+04    0.62767E-03   -0.42723E-03  4550   0.308E-02    0.142E-01
RMM:   5    -0.230321944390E+04    0.31268E-03   -0.12861E-03  4564   0.298E-02    0.342E-02
RMM:   6    -0.230321942226E+04    0.21641E-04   -0.18463E-04  3907   0.129E-02    0.182E-02
RMM:   7    -0.230321941403E+04    0.82372E-05   -0.18264E-05  2874   0.392E-03
  16 F= -.23232582E+04 E0= -.23232582E+04  d E =-.155859E-01  mag=     0.0000
       N       E                     dE             d eps       ncg     rms          rms(c)
DAV:   1    -0.230314063313E+04    0.78789E-01   -0.85129E+00  4368   0.290E+00    0.869E-01
RMM:   2    -0.230323112209E+04   -0.90489E-01   -0.96630E-01  5869   0.634E-01    0.632E-01
RMM:   3    -0.230322693294E+04    0.41892E-02   -0.72215E-02  4944   0.176E-01    0.309E-01
RMM:   4    -0.230322572759E+04    0.12053E-02   -0.66685E-03  4524   0.401E-02    0.187E-01
RMM:   5    -0.230322519582E+04    0.53178E-03   -0.22495E-03  4618   0.396E-02    0.466E-02
RMM:   6    -0.230322515448E+04    0.41338E-04   -0.33792E-04  4362   0.170E-02    0.237E-02
RMM:   7    -0.230322514068E+04    0.13799E-04   -0.34907E-05  3051   0.460E-03    0.130E-02
RMM:   8    -0.230322514043E+04    0.25285E-06   -0.15008E-05  2815   0.374E-03
  17 F= -.23232642E+04 E0= -.23232642E+04  d E =-.215893E-01  mag=     0.0000
       N       E                     dE             d eps       ncg     rms          rms(c)
DAV:   1    -0.230322226261E+04    0.28781E-02   -0.18078E+00  4432   0.130E+00    0.362E-01
RMM:   2    -0.230323533082E+04   -0.13068E-01   -0.14067E-01  5810   0.267E-01    0.280E-01
RMM:   3    -0.230323434978E+04    0.98104E-03   -0.96910E-03  5103   0.677E-02    0.142E-01
RMM:   4    -0.230323408727E+04    0.26251E-03   -0.97999E-04  4541   0.172E-02    0.829E-02
RMM:   5    -0.230323400157E+04    0.85694E-04   -0.40900E-04  4308   0.171E-02    0.185E-02
RMM:   6    -0.230323399734E+04    0.42360E-05   -0.56034E-05  3068   0.773E-03
  18 F= -.23232730E+04 E0= -.23232730E+04  d E =-.879688E-02  mag=     0.0000
       N       E                     dE             d eps       ncg     rms          rms(c)
DAV:   1    -0.230316438579E+04    0.69616E-01   -0.12181E+01  4368   0.338E+00    0.940E-01
RMM:   2    -0.230325281593E+04   -0.88430E-01   -0.94759E-01  5856   0.704E-01    0.756E-01
RMM:   3    -0.230324542036E+04    0.73956E-02   -0.62990E-02  5184   0.175E-01    0.369E-01
RMM:   4    -0.230324375734E+04    0.16630E-02   -0.69963E-03  4716   0.452E-02    0.215E-01
RMM:   5    -0.230324319071E+04    0.56664E-03   -0.26294E-03  4567   0.431E-02    0.492E-02
RMM:   6    -0.230324315935E+04    0.31359E-04   -0.38827E-04  4371   0.193E-02    0.260E-02
RMM:   7    -0.230324314500E+04    0.14352E-04   -0.31601E-05  3057   0.475E-03    0.136E-02
RMM:   8    -0.230324314772E+04   -0.27261E-05   -0.17762E-05  2853   0.391E-03
  19 F= -.23232820E+04 E0= -.23232820E+04  d E =-.177281E-01  mag=    -0.0000
       N       E                     dE             d eps       ncg     rms          rms(c)
DAV:   1    -0.230324540826E+04   -0.22633E-02   -0.76441E-01  4608   0.849E-01    0.272E-01
RMM:   2    -0.230325188708E+04   -0.64788E-02   -0.70120E-02  5799   0.179E-01    0.172E-01
RMM:   3    -0.230325172802E+04    0.15906E-03   -0.51853E-03  4926   0.503E-02    0.107E-01
RMM:   4    -0.230325157151E+04    0.15651E-03   -0.56353E-04  4439   0.135E-02    0.592E-02
RMM:   5    -0.230325152579E+04    0.45723E-04   -0.19267E-04  4081   0.119E-02    0.176E-02
RMM:   6    -0.230325151967E+04    0.61152E-05   -0.30715E-05  2935   0.567E-03
  20 F= -.23232902E+04 E0= -.23232902E+04  d E =-.821416E-02  mag=    -0.0000
       N       E                     dE             d eps       ncg     rms          rms(c)
DAV:   1    -0.230320624469E+04    0.45281E-01   -0.68728E+00  4368   0.255E+00    0.820E-01
RMM:   2    -0.230326606384E+04   -0.59819E-01   -0.64563E-01  5800   0.545E-01    0.536E-01
RMM:   3    -0.230326371184E+04    0.23520E-02   -0.46708E-02  5050   0.144E-01    0.312E-01
RMM:   4    -0.230326236727E+04    0.13446E-02   -0.50525E-03  4711   0.397E-02    0.175E-01
RMM:   5    -0.230326195836E+04    0.40891E-03   -0.17285E-03  4795   0.349E-02    0.517E-02
RMM:   6    -0.230326190203E+04    0.56328E-04   -0.27484E-04  4700   0.139E-02    0.226E-02
RMM:   7    -0.230326188550E+04    0.16530E-04   -0.29975E-05  2956   0.506E-03    0.118E-02
RMM:   8    -0.230326187950E+04    0.59973E-05   -0.20108E-05  2844   0.395E-03
  21 F= -.23233000E+04 E0= -.23233000E+04  d E =-.180599E-01  mag=    -0.0000
       N       E                     dE             d eps       ncg     rms          rms(c)
DAV:   1    -0.230326254091E+04   -0.65541E-03   -0.79248E-01  4416   0.860E-01    0.268E-01
RMM:   2    -0.230326995216E+04   -0.74112E-02   -0.79295E-02  5893   0.189E-01    0.185E-01
RMM:   3    -0.230326965585E+04    0.29631E-03   -0.57857E-03  5003   0.491E-02    0.103E-01
RMM:   4    -0.230326951369E+04    0.14215E-03   -0.57817E-04  4298   0.126E-02    0.590E-02
RMM:   5    -0.230326946156E+04    0.52136E-04   -0.20012E-04  4072   0.120E-02    0.134E-02
RMM:   6    -0.230326945761E+04    0.39474E-05   -0.25503E-05  2920   0.580E-03
  22 F= -.23233074E+04 E0= -.23233074E+04  d E =-.736814E-02  mag=    -0.0000
       N       E                     dE             d eps       ncg     rms          rms(c)
DAV:   1    -0.230321793858E+04    0.51523E-01   -0.71204E+00  4368   0.258E+00    0.811E-01
RMM:   2    -0.230328624282E+04   -0.68304E-01   -0.72867E-01  5860   0.577E-01    0.586E-01
RMM:   3    -0.230328273954E+04    0.35033E-02   -0.50564E-02  5144   0.143E-01    0.304E-01
RMM:   4    -0.230328153157E+04    0.12080E-02   -0.52532E-03  4650   0.373E-02    0.178E-01
RMM:   5    -0.230328105641E+04    0.47516E-03   -0.18832E-03  4754   0.354E-02    0.409E-02
RMM:   6    -0.230328101330E+04    0.43102E-04   -0.23882E-04  4446   0.145E-02    0.221E-02
RMM:   7    -0.230328099763E+04    0.15673E-04   -0.29684E-05  3037   0.461E-03    0.119E-02
RMM:   8    -0.230328099151E+04    0.61210E-05   -0.18597E-05  2840   0.395E-03
  23 F= -.23233182E+04 E0= -.23233182E+04  d E =-.182210E-01  mag=    -0.0000
       N       E                     dE             d eps       ncg     rms          rms(c)
DAV:   1    -0.230328436373E+04   -0.33661E-02   -0.48518E-01  4560   0.672E-01    0.220E-01
RMM:   2    -0.230328817880E+04   -0.38151E-02   -0.40081E-02  5759   0.140E-01    0.174E-01
RMM:   3    -0.230328772149E+04    0.45731E-03   -0.26891E-03  4687   0.399E-02    0.852E-02
RMM:   4    -0.230328762376E+04    0.97724E-04   -0.35095E-04  4270   0.117E-02    0.454E-02
RMM:   5    -0.230328759977E+04    0.23997E-04   -0.10573E-04  3830   0.102E-02    0.113E-02
RMM:   6    -0.230328759882E+04    0.94229E-06   -0.18787E-05  2861   0.481E-03
  24 F= -.23233248E+04 E0= -.23233248E+04  d E =-.658412E-02  mag=    -0.0000
       N       E                     dE             d eps       ncg     rms          rms(c)
DAV:   1    -0.230326785638E+04    0.19743E-01   -0.41237E+00  4368   0.196E+00    0.645E-01
RMM:   2    -0.230330067756E+04   -0.32821E-01   -0.34399E-01  5764   0.412E-01    0.522E-01
RMM:   3    -0.230329670736E+04    0.39702E-02   -0.22863E-02  4883   0.110E-01    0.248E-01
RMM:   4    -0.230329588534E+04    0.82202E-03   -0.30241E-03  4587   0.338E-02    0.132E-01
RMM:   5    -0.230329566236E+04    0.22298E-03   -0.90812E-04  4541   0.284E-02    0.319E-02
RMM:   6    -0.230329565258E+04    0.97879E-05   -0.16328E-04  4091   0.117E-02    0.180E-02
RMM:   7    -0.230329564418E+04    0.83957E-05   -0.18884E-05  2876   0.472E-03
  25 F= -.23233328E+04 E0= -.23233328E+04  d E =-.145418E-01  mag=     0.0000
       N       E                     dE             d eps       ncg     rms          rms(c)
DAV:   1    -0.230329556722E+04    0.85361E-04   -0.63325E-01  4416   0.794E-01    0.239E-01
RMM:   2    -0.230330174534E+04   -0.61781E-02   -0.65756E-02  5767   0.168E-01    0.165E-01
RMM:   3    -0.230330156115E+04    0.18419E-03   -0.50919E-03  4782   0.482E-02    0.892E-02
RMM:   4    -0.230330146144E+04    0.99714E-04   -0.50816E-04  4188   0.118E-02    0.522E-02
RMM:   5    -0.230330142577E+04    0.35666E-04   -0.14953E-04  3914   0.109E-02    0.139E-02
RMM:   6    -0.230330142248E+04    0.32962E-05   -0.22893E-05  2886   0.530E-03
  26 F= -.23233384E+04 E0= -.23233384E+04  d E =-.565254E-02  mag=     0.0000
       N       E                     dE             d eps       ncg     rms          rms(c)
DAV:   1    -0.230325801530E+04    0.43410E-01   -0.56875E+00  4368   0.238E+00    0.721E-01
RMM:   2    -0.230331521149E+04   -0.57196E-01   -0.60800E-01  5786   0.506E-01    0.511E-01
RMM:   3    -0.230331190377E+04    0.33077E-02   -0.44566E-02  4904   0.134E-01    0.262E-01
RMM:   4    -0.230331104441E+04    0.85936E-03   -0.46689E-03  4505   0.343E-02    0.154E-01
RMM:   5    -0.230331071383E+04    0.33058E-03   -0.13340E-03  4625   0.320E-02    0.418E-02
RMM:   6    -0.230331068145E+04    0.32381E-04   -0.20662E-04  4197   0.130E-02    0.200E-02
RMM:   7    -0.230331067119E+04    0.10264E-04   -0.21927E-05  2890   0.447E-03    0.994E-03
RMM:   8    -0.230331066938E+04    0.18039E-05   -0.12302E-05  2804   0.323E-03
  27 F= -.23233473E+04 E0= -.23233473E+04  d E =-.144880E-01  mag=    -0.0000
       N       E                     dE             d eps       ncg     rms          rms(c)
DAV:   1    -0.230331179692E+04   -0.11257E-02   -0.12253E+00  4416   0.112E+00    0.321E-01
RMM:   2    -0.230332062751E+04   -0.88306E-02   -0.97510E-02  5701   0.229E-01    0.190E-01
RMM:   3    -0.230332040193E+04    0.22558E-03   -0.59167E-03  5167   0.589E-02    0.125E-01
RMM:   4    -0.230332019975E+04    0.20218E-03   -0.72896E-04  4673   0.179E-02    0.755E-02
RMM:   5    -0.230332012786E+04    0.71890E-04   -0.29610E-04  4327   0.156E-02    0.197E-02
RMM:   6    -0.230332012254E+04    0.53170E-05   -0.44170E-05  3027   0.643E-03
  28 F= -.23233563E+04 E0= -.23233563E+04  d E =-.900572E-02  mag=    -0.0000
       N       E                     dE             d eps       ncg     rms          rms(c)
DAV:   1    -0.230329616944E+04    0.23958E-01   -0.43374E+00  4368   0.210E+00    0.606E-01
RMM:   2    -0.230332763528E+04   -0.31466E-01   -0.34681E-01  5707   0.433E-01    0.363E-01
RMM:   3    -0.230332678764E+04    0.84764E-03   -0.22414E-02  5241   0.108E-01    0.235E-01
RMM:   4    -0.230332608010E+04    0.70754E-03   -0.26474E-03  4816   0.336E-02    0.144E-01
RMM:   5    -0.230332582007E+04    0.26004E-03   -0.10500E-03  4648   0.292E-02    0.388E-02
RMM:   6    -0.230332579952E+04    0.20543E-04   -0.16643E-04  4344   0.114E-02    0.167E-02
RMM:   7    -0.230332579369E+04    0.58277E-05   -0.18048E-05  2868   0.464E-03
  29 F= -.23233611E+04 E0= -.23233611E+04  d E =-.138157E-01  mag=    -0.0000
       N       E                     dE             d eps       ncg     rms          rms(c)
DAV:   1    -0.230332479224E+04    0.10073E-02   -0.16751E-01  4608   0.413E-01    0.118E-01
RMM:   2    -0.230332597001E+04   -0.11778E-02   -0.13003E-02  5760   0.844E-02    0.670E-02
RMM:   3    -0.230332596469E+04    0.53226E-05   -0.82643E-04  4297   0.233E-02    0.462E-02
RMM:   4    -0.230332593966E+04    0.25026E-04   -0.99412E-05  3214   0.726E-03    0.285E-02
RMM:   5    -0.230332593069E+04    0.89731E-05   -0.43150E-05  3034   0.658E-03
  30 F= -.23233614E+04 E0= -.23233614E+04  d E =-.141242E-01  mag=    -0.0000
       N       E                     dE             d eps       ncg     rms          rms(c)
DAV:   1    -0.230331492149E+04    0.11018E-01   -0.20654E+00  4384   0.145E+00    0.414E-01
RMM:   2    -0.230333349891E+04   -0.18577E-01   -0.20458E-01  5812   0.303E-01    0.221E-01
RMM:   3    -0.230333379006E+04   -0.29116E-03   -0.14479E-02  5238   0.803E-02    0.148E-01
RMM:   4    -0.230333357774E+04    0.21232E-03   -0.14707E-03  4794   0.207E-02    0.959E-02
RMM:   5    -0.230333346015E+04    0.11759E-03   -0.45417E-04  4462   0.176E-02    0.298E-02
RMM:   6    -0.230333344795E+04    0.12197E-04   -0.68891E-05  3169   0.747E-03    0.921E-03
RMM:   7    -0.230333344590E+04    0.20524E-05   -0.85273E-06  2808   0.406E-03
  31 F= -.23233685E+04 E0= -.23233685E+04  d E =-.709933E-02  mag=    -0.0000
       N       E                     dE             d eps       ncg     rms          rms(c)
DAV:   1    -0.230331439766E+04    0.19050E-01   -0.24671E+00  4368   0.158E+00    0.454E-01
RMM:   2    -0.230333689228E+04   -0.22495E-01   -0.24740E-01  5814   0.333E-01    0.242E-01
RMM:   3    -0.230333693594E+04   -0.43665E-04   -0.17111E-02  5273   0.890E-02    0.162E-01
RMM:   4    -0.230333667817E+04    0.25777E-03   -0.17227E-03  4831   0.226E-02    0.105E-01
RMM:   5    -0.230333654469E+04    0.13348E-03   -0.54233E-04  4555   0.193E-02    0.330E-02
RMM:   6    -0.230333652949E+04    0.15198E-04   -0.82499E-05  3331   0.795E-03    0.103E-02
RMM:   7    -0.230333652691E+04    0.25866E-05   -0.95240E-06  2809   0.427E-03
  32 F= -.23233711E+04 E0= -.23233711E+04  d E =-.971091E-02  mag=    -0.0000
       N       E                     dE             d eps       ncg     rms          rms(c)
DAV:   1    -0.230332984175E+04    0.66877E-02   -0.16013E+00  4376   0.126E+00    0.353E-01
RMM:   2    -0.230334447374E+04   -0.14632E-01   -0.15865E-01  5809   0.268E-01    0.224E-01
RMM:   3    -0.230334439308E+04    0.80660E-04   -0.10943E-02  5170   0.735E-02    0.135E-01
RMM:   4    -0.230334418341E+04    0.20968E-03   -0.10852E-03  4590   0.177E-02    0.816E-02
RMM:   5    -0.230334410511E+04    0.78297E-04   -0.33281E-04  4297   0.154E-02    0.222E-02
RMM:   6    -0.230334409835E+04    0.67619E-05   -0.51290E-05  3034   0.702E-03
  33 F= -.23233783E+04 E0= -.23233783E+04  d E =-.723528E-02  mag=    -0.0000
       N       E                     dE             d eps       ncg     rms          rms(c)
DAV:   1    -0.230322772588E+04    0.11638E+00   -0.14071E+01  4368   0.372E+00    0.105E+00
RMM:   2    -0.230335851087E+04   -0.13078E+00   -0.14146E+00  5846   0.804E-01    0.704E-01
RMM:   3    -0.230335561759E+04    0.28933E-02   -0.95501E-02  5211   0.206E-01    0.396E-01
RMM:   4    -0.230335383708E+04    0.17805E-02   -0.94427E-03  4697   0.513E-02    0.239E-01
RMM:   5    -0.230335317935E+04    0.65774E-03   -0.28849E-03  4556   0.452E-02    0.674E-02
RMM:   6    -0.230335310732E+04    0.72033E-04   -0.46023E-04  4651   0.196E-02    0.283E-02
RMM:   7    -0.230335309178E+04    0.15535E-04   -0.43883E-05  3128   0.580E-03    0.147E-02
RMM:   8    -0.230335309130E+04    0.48238E-06   -0.20046E-05  2875   0.445E-03
  34 F= -.23233863E+04 E0= -.23233863E+04  d E =-.151758E-01  mag=    -0.0000
       N       E                     dE             d eps       ncg     rms          rms(c)
DAV:   1    -0.230333975103E+04    0.13341E-01   -0.24903E+00  4376   0.151E+00    0.452E-01
RMM:   2    -0.230336273610E+04   -0.22985E-01   -0.24629E-01  5851   0.319E-01    0.325E-01
RMM:   3    -0.230336168565E+04    0.10504E-02   -0.17834E-02  5077   0.864E-02    0.172E-01
RMM:   4    -0.230336133049E+04    0.35515E-03   -0.17217E-03  4594   0.208E-02    0.983E-02
RMM:   5    -0.230336123229E+04    0.98203E-04   -0.47866E-04  4376   0.182E-02    0.291E-02
RMM:   6    -0.230336121680E+04    0.15490E-04   -0.80796E-05  3158   0.807E-03    0.114E-02
RMM:   7    -0.230336121433E+04    0.24681E-05   -0.98593E-06  2804   0.375E-03
  35 F= -.23233938E+04 E0= -.23233938E+04  d E =-.756328E-02  mag=    -0.0000
       N       E                     dE             d eps       ncg     rms          rms(c)
DAV:   1    -0.230323718495E+04    0.12403E+00   -0.15218E+01  4368   0.372E+00    0.113E+00
RMM:   2    -0.230338006933E+04   -0.14288E+00   -0.15260E+00  5858   0.804E-01    0.838E-01
RMM:   3    -0.230337282903E+04    0.72403E-02   -0.11530E-01  5071   0.224E-01    0.412E-01
RMM:   4    -0.230337099207E+04    0.18370E-02   -0.11705E-02  4678   0.524E-02    0.241E-01
RMM:   5    -0.230337037642E+04    0.61566E-03   -0.28303E-03  4571   0.438E-02    0.793E-02
RMM:   6    -0.230337024840E+04    0.12802E-03   -0.55946E-04  4703   0.194E-02    0.284E-02
RMM:   7    -0.230337022689E+04    0.21513E-04   -0.55065E-05  3193   0.571E-03    0.144E-02
RMM:   8    -0.230337022690E+04   -0.10710E-07   -0.20669E-05  2836   0.423E-03
  36 F= -.23234014E+04 E0= -.23234014E+04  d E =-.151382E-01  mag=     0.0000
       N       E                     dE             d eps       ncg     rms          rms(c)
DAV:   1    -0.230334168159E+04    0.28545E-01   -0.38201E+00  4368   0.182E+00    0.598E-01
RMM:   2    -0.230338395413E+04   -0.42273E-01   -0.45335E-01  5862   0.413E-01    0.412E-01
RMM:   3    -0.230338254543E+04    0.14087E-02   -0.34797E-02  5208   0.113E-01    0.224E-01
RMM:   4    -0.230338198254E+04    0.56289E-03   -0.33142E-03  4584   0.278E-02    0.131E-01
RMM:   5    -0.230338180008E+04    0.18246E-03   -0.79161E-04  4627   0.234E-02    0.417E-02
RMM:   6    -0.230338176759E+04    0.32497E-04   -0.14289E-04  3744   0.961E-03    0.152E-02
RMM:   7    -0.230338176216E+04    0.54249E-05   -0.16555E-05  2844   0.473E-03
  37 F= -.23234119E+04 E0= -.23234119E+04  d E =-.105292E-01  mag=     0.0000
       N       E                     dE             d eps       ncg     rms          rms(c)
DAV:   1    -0.230334888599E+04    0.32882E-01   -0.35485E+00  4368   0.175E+00    0.576E-01
RMM:   2    -0.230338821629E+04   -0.39330E-01   -0.42244E-01  5850   0.397E-01    0.392E-01
RMM:   3    -0.230338698365E+04    0.12326E-02   -0.32249E-02  5167   0.109E-01    0.215E-01
RMM:   4    -0.230338646378E+04    0.51987E-03   -0.31032E-03  4603   0.271E-02    0.126E-01
RMM:   5    -0.230338629158E+04    0.17220E-03   -0.73288E-04  4571   0.228E-02    0.396E-02
RMM:   6    -0.230338626270E+04    0.28875E-04   -0.13018E-04  3627   0.933E-03    0.147E-02
RMM:   7    -0.230338625787E+04    0.48374E-05   -0.16038E-05  2836   0.478E-03
  38 F= -.23234154E+04 E0= -.23234154E+04  d E =-.140350E-01  mag=    -0.0000
       N       E                     dE             d eps       ncg     rms          rms(c)
DAV:   1    -0.230336575044E+04    0.20512E-01   -0.30581E+00  4368   0.160E+00    0.533E-01
RMM:   2    -0.230339644580E+04   -0.30695E-01   -0.33586E-01  5875   0.367E-01    0.319E-01
RMM:   3    -0.230339656060E+04   -0.11480E-03   -0.22501E-02  5376   0.936E-02    0.204E-01
RMM:   4    -0.230339607384E+04    0.48676E-03   -0.20087E-03  4896   0.241E-02    0.121E-01
RMM:   5    -0.230339592684E+04    0.14699E-03   -0.62928E-04  4550   0.204E-02    0.334E-02
RMM:   6    -0.230339591280E+04    0.14047E-04   -0.11109E-04  3305   0.832E-03    0.135E-02
RMM:   7    -0.230339590862E+04    0.41735E-05   -0.11998E-05  2812   0.441E-03
  39 F= -.23234241E+04 E0= -.23234241E+04  d E =-.869670E-02  mag=    -0.0000
       N       E                     dE             d eps       ncg     rms          rms(c)
DAV:   1    -0.230337674132E+04    0.19171E-01   -0.22707E+00  4384   0.138E+00    0.459E-01
RMM:   2    -0.230339942767E+04   -0.22686E-01   -0.24837E-01  5879   0.314E-01    0.274E-01
RMM:   3    -0.230339954812E+04   -0.12045E-03   -0.16775E-02  5387   0.811E-02    0.177E-01
RMM:   4    -0.230339917951E+04    0.36860E-03   -0.14916E-03  4842   0.209E-02    0.105E-01
RMM:   5    -0.230339906587E+04    0.11364E-03   -0.47056E-04  4423   0.177E-02    0.288E-02
RMM:   6    -0.230339905518E+04    0.10693E-04   -0.84215E-05  3131   0.755E-03    0.117E-02
RMM:   7    -0.230339905187E+04    0.33072E-05   -0.96769E-06  2808   0.412E-03
  40 F= -.23234265E+04 E0= -.23234265E+04  d E =-.110040E-01  mag=    -0.0000
       N       E                     dE             d eps       ncg     rms          rms(c)
DAV:   1    -0.230337305584E+04    0.25999E-01   -0.31474E+00  4368   0.162E+00    0.538E-01
RMM:   2    -0.230340791319E+04   -0.34857E-01   -0.38372E-01  5930   0.371E-01    0.287E-01
RMM:   3    -0.230340817446E+04   -0.26126E-03   -0.26353E-02  5463   0.925E-02    0.195E-01
RMM:   4    -0.230340781294E+04    0.36151E-03   -0.21374E-03  4924   0.231E-02    0.123E-01
RMM:   5    -0.230340764838E+04    0.16457E-03   -0.63513E-04  4547   0.190E-02    0.386E-02
RMM:   6    -0.230340763010E+04    0.18276E-04   -0.10258E-04  3229   0.829E-03    0.119E-02
RMM:   7    -0.230340762778E+04    0.23255E-05   -0.13138E-05  2826   0.458E-03
  41 F= -.23234343E+04 E0= -.23234343E+04  d E =-.784094E-02  mag=    -0.0000
       N       E                     dE             d eps       ncg     rms          rms(c)
DAV:   1    -0.230337097749E+04    0.36653E-01   -0.36347E+00  4368   0.174E+00    0.578E-01
RMM:   2    -0.230341057053E+04   -0.39593E-01   -0.43679E-01  5919   0.398E-01    0.306E-01
RMM:   3    -0.230341141104E+04   -0.84051E-03   -0.30580E-02  5476   0.101E-01    0.206E-01
RMM:   4    -0.230341102441E+04    0.38662E-03   -0.24735E-03  4946   0.249E-02    0.131E-01
RMM:   5    -0.230341084094E+04    0.18347E-03   -0.73113E-04  4562   0.203E-02    0.415E-02
RMM:   6    -0.230341081920E+04    0.21737E-04   -0.11801E-04  3301   0.882E-03    0.125E-02
RMM:   7    -0.230341081676E+04    0.24398E-05   -0.15228E-05  2832   0.481E-03
  42 F= -.23234367E+04 E0= -.23234367E+04  d E =-.102268E-01  mag=    -0.0000
       N       E                     dE             d eps       ncg     rms          rms(c)
DAV:   1    -0.230337946482E+04    0.31354E-01   -0.34549E+00  4368   0.170E+00    0.570E-01
RMM:   2    -0.230341946691E+04   -0.40002E-01   -0.43984E-01  5939   0.398E-01    0.325E-01
RMM:   3    -0.230342000087E+04   -0.53396E-03   -0.29252E-02  5436   0.981E-02    0.208E-01
RMM:   4    -0.230341953847E+04    0.46240E-03   -0.24341E-03  4926   0.242E-02    0.128E-01
RMM:   5    -0.230341936622E+04    0.17226E-03   -0.68989E-04  4482   0.200E-02    0.365E-02
RMM:   6    -0.230341935213E+04    0.14087E-04   -0.12768E-04  3292   0.875E-03    0.132E-02
RMM:   7    -0.230341934832E+04    0.38125E-05   -0.13062E-05  2812   0.434E-03
  43 F= -.23234444E+04 E0= -.23234444E+04  d E =-.772192E-02  mag=    -0.0000
       N       E                     dE             d eps       ncg     rms          rms(c)
DAV:   1    -0.230334299620E+04    0.76356E-01   -0.70339E+00  4368   0.243E+00    0.814E-01
RMM:   2    -0.230342521592E+04   -0.82220E-01   -0.90318E-01  5969   0.574E-01    0.473E-01
RMM:   3    -0.230342598887E+04   -0.77294E-03   -0.59086E-02  5456   0.139E-01    0.297E-01
RMM:   4    -0.230342503522E+04    0.95365E-03   -0.48811E-03  5021   0.342E-02    0.182E-01
RMM:   5    -0.230342469245E+04    0.34277E-03   -0.14288E-03  4602   0.286E-02    0.541E-02
RMM:   6    -0.230342465591E+04    0.36534E-04   -0.25239E-04  4115   0.121E-02    0.192E-02
RMM:   7    -0.230342464841E+04    0.75065E-05   -0.26816E-05  2838   0.509E-03
  44 F= -.23234485E+04 E0= -.23234485E+04  d E =-.118463E-01  mag=    -0.0000
       N       E                     dE             d eps       ncg     rms          rms(c)
DAV:   1    -0.230338214898E+04    0.42507E-01   -0.46296E+00  4368   0.194E+00    0.701E-01
RMM:   2    -0.230343657146E+04   -0.54422E-01   -0.59490E-01  5924   0.459E-01    0.446E-01
RMM:   3    -0.230343591258E+04    0.65888E-03   -0.43075E-02  5295   0.120E-01    0.251E-01
RMM:   4    -0.230343520502E+04    0.70756E-03   -0.42280E-03  4778   0.299E-02    0.144E-01
RMM:   5    -0.230343499260E+04    0.21242E-03   -0.87183E-04  4681   0.236E-02    0.470E-02
RMM:   6    -0.230343496105E+04    0.31549E-04   -0.19305E-04  3834   0.994E-03    0.155E-02
RMM:   7    -0.230343495459E+04    0.64642E-05   -0.18574E-05  2844   0.477E-03
  45 F= -.23234580E+04 E0= -.23234580E+04  d E =-.942805E-02  mag=    -0.0000
       N       E                     dE             d eps       ncg     rms          rms(c)
DAV:   1    -0.230340521552E+04    0.29746E-01   -0.28461E+00  4368   0.152E+00    0.549E-01
RMM:   2    -0.230343878623E+04   -0.33571E-01   -0.36726E-01  5907   0.360E-01    0.345E-01
RMM:   3    -0.230343864569E+04    0.14054E-03   -0.27213E-02  5278   0.944E-02    0.199E-01
RMM:   4    -0.230343813067E+04    0.51502E-03   -0.20573E-03  4737   0.226E-02    0.114E-01
RMM:   5    -0.230343799516E+04    0.13551E-03   -0.56113E-04  4500   0.190E-02    0.364E-02
RMM:   6    -0.230343797658E+04    0.18580E-04   -0.12361E-04  3288   0.829E-03    0.125E-02
RMM:   7    -0.230343797252E+04    0.40587E-05   -0.13175E-05  2822   0.455E-03
  46 F= -.23234603E+04 E0= -.23234603E+04  d E =-.117490E-01  mag=     0.0000
       N       E                     dE             d eps       ncg     rms          rms(c)
DAV:   1    -0.230337041466E+04    0.67562E-01   -0.58192E+00  4368   0.215E+00    0.806E-01
RMM:   2    -0.230344929192E+04   -0.78877E-01   -0.85998E-01  5960   0.518E-01    0.509E-01
RMM:   3    -0.230344888340E+04    0.40853E-03   -0.64618E-02  5226   0.136E-01    0.280E-01
RMM:   4    -0.230344809834E+04    0.78506E-03   -0.61882E-03  4747   0.327E-02    0.164E-01
RMM:   5    -0.230344781373E+04    0.28461E-03   -0.10741E-03  4694   0.256E-02    0.566E-02
RMM:   6    -0.230344776376E+04    0.49971E-04   -0.24393E-04  4124   0.109E-02    0.174E-02
RMM:   7    -0.230344775475E+04    0.90073E-05   -0.27322E-05  2906   0.550E-03
  47 F= -.23234691E+04 E0= -.23234691E+04  d E =-.878747E-02  mag=     0.0000
       N       E                     dE             d eps       ncg     rms          rms(c)
DAV:   1    -0.230343819417E+04    0.95696E-02   -0.80522E-01  4480   0.798E-01    0.298E-01
RMM:   2    -0.230344894009E+04   -0.10746E-01   -0.11764E-01  5930   0.192E-01    0.179E-01
RMM:   3    -0.230344904071E+04   -0.10061E-03   -0.87762E-03  5059   0.512E-02    0.107E-01
RMM:   4    -0.230344892010E+04    0.12061E-03   -0.86928E-04  4214   0.127E-02    0.617E-02
RMM:   5    -0.230344887701E+04    0.43086E-04   -0.15379E-04  3703   0.100E-02    0.200E-02
RMM:   6    -0.230344887121E+04    0.58004E-05   -0.34834E-05  2898   0.547E-03
  48 F= -.23234698E+04 E0= -.23234698E+04  d E =-.953262E-02  mag=     0.0000
       N       E                     dE             d eps       ncg     rms          rms(c)
DAV:   1    -0.230340535679E+04    0.43520E-01   -0.39592E+00  4368   0.178E+00    0.640E-01
RMM:   2    -0.230345654250E+04   -0.51186E-01   -0.56564E-01  5958   0.432E-01    0.359E-01
RMM:   3    -0.230345745767E+04   -0.91517E-03   -0.36617E-02  5438   0.990E-02    0.233E-01
RMM:   4    -0.230345690783E+04    0.54984E-03   -0.33069E-03  5053   0.264E-02    0.142E-01
RMM:   5    -0.230345670074E+04    0.20710E-03   -0.80951E-04  4593   0.208E-02    0.402E-02
RMM:   6    -0.230345668681E+04    0.13926E-04   -0.16834E-04  3464   0.941E-03    0.144E-02
RMM:   7    -0.230345668124E+04    0.55740E-05   -0.15053E-05  2814   0.435E-03
  49 F= -.23234767E+04 E0= -.23234767E+04  d E =-.692367E-02  mag=     0.0000
       N       E                     dE             d eps       ncg     rms          rms(c)
DAV:   1    -0.230344529339E+04    0.11393E-01   -0.95758E-01  4384   0.872E-01    0.315E-01
RMM:   2    -0.230345771680E+04   -0.12423E-01   -0.13726E-01  5967   0.212E-01    0.174E-01
RMM:   3    -0.230345801676E+04   -0.29996E-03   -0.89337E-03  5286   0.514E-02    0.118E-01
RMM:   4    -0.230345787105E+04    0.14572E-03   -0.79394E-04  4292   0.135E-02    0.714E-02
RMM:   5    -0.230345781878E+04    0.52262E-04   -0.20101E-04  3880   0.108E-02    0.188E-02
RMM:   6    -0.230345781633E+04    0.24509E-05   -0.42345E-05  2918   0.577E-03
  50 F= -.23234774E+04 E0= -.23234774E+04  d E =-.762469E-02  mag=     0.0000
       N       E                     dE             d eps       ncg     rms          rms(c)
DAV:   1    -0.230343406483E+04    0.23754E-01   -0.22532E+00  4368   0.133E+00    0.478E-01
RMM:   2    -0.230346329829E+04   -0.29233E-01   -0.32538E-01  6004   0.323E-01    0.230E-01
RMM:   3    -0.230346421778E+04   -0.91949E-03   -0.20863E-02  5502   0.696E-02    0.160E-01
RMM:   4    -0.230346405011E+04    0.16767E-03   -0.18440E-03  4722   0.189E-02    0.107E-01
RMM:   5    -0.230346392462E+04    0.12548E-03   -0.44270E-04  4297   0.149E-02    0.328E-02
RMM:   6    -0.230346391438E+04    0.10240E-04   -0.79319E-05  2978   0.723E-03    0.950E-03
RMM:   7    -0.230346391274E+04    0.16438E-05   -0.10362E-05  2810   0.408E-03
  51 F= -.23234830E+04 E0= -.23234830E+04  d E =-.557130E-02  mag=    -0.0000
       N       E                     dE             d eps       ncg     rms          rms(c)
DAV:   1    -0.230340478019E+04    0.59134E-01   -0.47592E+00  4368   0.194E+00    0.695E-01
RMM:   2    -0.230346658580E+04   -0.61806E-01   -0.68800E-01  6014   0.472E-01    0.337E-01
RMM:   3    -0.230346836790E+04   -0.17821E-02   -0.44480E-02  5516   0.107E-01    0.229E-01
RMM:   4    -0.230346803143E+04    0.33646E-03   -0.39220E-03  5098   0.277E-02    0.153E-01
RMM:   5    -0.230346777377E+04    0.25766E-03   -0.94821E-04  4640   0.214E-02    0.495E-02
RMM:   6    -0.230346774739E+04    0.26382E-04   -0.16683E-04  3640   0.933E-03    0.134E-02
RMM:   7    -0.230346774375E+04    0.36392E-05   -0.17536E-05  2840   0.488E-03
  52 F= -.23234861E+04 E0= -.23234861E+04  d E =-.865009E-02  mag=     0.0000
       N       E                     dE             d eps       ncg     rms          rms(c)
DAV:   1    -0.230345402109E+04    0.13726E-01   -0.15209E+00  4376   0.111E+00    0.410E-01
RMM:   2    -0.230347320370E+04   -0.19183E-01   -0.21392E-01  5934   0.271E-01    0.198E-01
RMM:   3    -0.230347373330E+04   -0.52960E-03   -0.13304E-02  5424   0.641E-02    0.141E-01
RMM:   4    -0.230347358548E+04    0.14782E-03   -0.13252E-03  4796   0.185E-02    0.925E-02
RMM:   5    -0.230347348323E+04    0.10225E-03   -0.33185E-04  4220   0.145E-02    0.239E-02
RMM:   6    -0.230347347818E+04    0.50463E-05   -0.54659E-05  2938   0.661E-03
  53 F= -.23234915E+04 E0= -.23234915E+04  d E =-.538264E-02  mag=     0.0000
       N       E                     dE             d eps       ncg     rms          rms(c)
DAV:   1    -0.230346010806E+04    0.13375E-01   -0.11958E+00  4376   0.982E-01    0.363E-01
RMM:   2    -0.230347506352E+04   -0.14955E-01   -0.16701E-01  5944   0.240E-01    0.173E-01
RMM:   3    -0.230347546550E+04   -0.40198E-03   -0.10221E-02  5464   0.531E-02    0.122E-01
RMM:   4    -0.230347536357E+04    0.10193E-03   -0.10363E-03  4622   0.162E-02    0.822E-02
RMM:   5    -0.230347528121E+04    0.82358E-04   -0.26407E-04  4141   0.128E-02    0.212E-02
RMM:   6    -0.230347527663E+04    0.45809E-05   -0.42791E-05  2910   0.614E-03
  54 F= -.23234930E+04 E0= -.23234930E+04  d E =-.687362E-02  mag=    -0.0000
       N       E                     dE             d eps       ncg     rms          rms(c)
DAV:   1    -0.230346265965E+04    0.12622E-01   -0.14287E+00  4368   0.109E+00    0.399E-01
RMM:   2    -0.230347982671E+04   -0.17167E-01   -0.19063E-01  5908   0.264E-01    0.206E-01
RMM:   3    -0.230348021638E+04   -0.38967E-03   -0.12070E-02  5429   0.644E-02    0.145E-01
RMM:   4    -0.230347998170E+04    0.23468E-03   -0.11884E-03  4728   0.177E-02    0.871E-02
RMM:   5    -0.230347990003E+04    0.81670E-04   -0.30566E-04  4187   0.140E-02    0.206E-02
RMM:   6    -0.230347989778E+04    0.22447E-05   -0.54157E-05  2934   0.673E-03
  55 F= -.23234971E+04 E0= -.23234971E+04  d E =-.417812E-02  mag=    -0.0000
       N       E                     dE             d eps       ncg     rms          rms(c)
DAV:   1    -0.230346728652E+04    0.12614E-01   -0.11236E+00  4384   0.973E-01    0.353E-01
RMM:   2    -0.230348081897E+04   -0.13532E-01   -0.15025E-01  5885   0.233E-01    0.182E-01
RMM:   3    -0.230348113329E+04   -0.31432E-03   -0.93250E-03  5414   0.540E-02    0.131E-01
RMM:   4    -0.230348094121E+04    0.19208E-03   -0.94072E-04  4560   0.157E-02    0.778E-02
RMM:   5    -0.230348087434E+04    0.66872E-04   -0.23925E-04  4063   0.124E-02    0.180E-02
RMM:   6    -0.230348087242E+04    0.19210E-05   -0.43695E-05  2923   0.640E-03
  56 F= -.23234977E+04 E0= -.23234977E+04  d E =-.476377E-02  mag=    -0.0000
       N       E                     dE             d eps       ncg     rms          rms(c)
DAV:   1    -0.230347363621E+04    0.72381E-02   -0.75410E-01  4416   0.773E-01    0.280E-01
RMM:   2    -0.230348370165E+04   -0.10065E-01   -0.11129E-01  5979   0.187E-01    0.143E-01
RMM:   3    -0.230348400159E+04   -0.29994E-03   -0.71431E-03  5206   0.439E-02    0.102E-01
RMM:   4    -0.230348390460E+04    0.96993E-04   -0.63629E-04  3822   0.115E-02    0.612E-02
RMM:   5    -0.230348386734E+04    0.37261E-04   -0.14288E-04  3596   0.914E-03    0.168E-02
RMM:   6    -0.230348386555E+04    0.17807E-05   -0.27407E-05  2882   0.511E-03
  57 F= -.23235004E+04 E0= -.23235004E+04  d E =-.270120E-02  mag=    -0.0000
       N       E                     dE             d eps       ncg     rms          rms(c)
DAV:   1    -0.230342481115E+04    0.59056E-01   -0.46035E+00  4368   0.191E+00    0.692E-01
RMM:   2    -0.230348669194E+04   -0.61881E-01   -0.68364E-01  6031   0.461E-01    0.363E-01
RMM:   3    -0.230348817485E+04   -0.14829E-02   -0.43849E-02  5478   0.104E-01    0.246E-01
RMM:   4    -0.230348762359E+04    0.55126E-03   -0.38774E-03  5010   0.272E-02    0.149E-01
RMM:   5    -0.230348740795E+04    0.21564E-03   -0.86244E-04  4690   0.206E-02    0.446E-02
RMM:   6    -0.230348738735E+04    0.20596E-04   -0.15304E-04  3375   0.911E-03    0.144E-02
RMM:   7    -0.230348738282E+04    0.45332E-05   -0.21624E-05  2826   0.497E-03
  58 F= -.23235032E+04 E0= -.23235032E+04  d E =-.551629E-02  mag=    -0.0000
       N       E                     dE             d eps       ncg     rms          rms(c)
DAV:   1    -0.230347934698E+04    0.80404E-02   -0.99231E-01  4384   0.945E-01    0.357E-01
RMM:   2    -0.230349264514E+04   -0.13298E-01   -0.14890E-01  5868   0.227E-01    0.152E-01
RMM:   3    -0.230349294852E+04   -0.30338E-03   -0.80894E-03  5350   0.531E-02    0.108E-01
RMM:   4    -0.230349287151E+04    0.77007E-04   -0.91117E-04  4499   0.157E-02    0.742E-02
RMM:   5    -0.230349280033E+04    0.71180E-04   -0.22215E-04  4100   0.124E-02    0.189E-02
RMM:   6    -0.230349279611E+04    0.42252E-05   -0.35801E-05  2928   0.602E-03
  59 F= -.23235083E+04 E0= -.23235083E+04  d E =-.510138E-02  mag=     0.0000
       N       E                     dE             d eps       ncg     rms          rms(c)
DAV:   1    -0.230347695818E+04    0.15842E-01   -0.13393E+00  4368   0.110E+00    0.414E-01
RMM:   2    -0.230349490253E+04   -0.17944E-01   -0.20096E-01  5850   0.265E-01    0.176E-01
RMM:   3    -0.230349531048E+04   -0.40795E-03   -0.11036E-02  5370   0.578E-02    0.123E-01
RMM:   4    -0.230349521680E+04    0.93678E-04   -0.12134E-03  4697   0.180E-02    0.864E-02
RMM:   5    -0.230349511779E+04    0.99008E-04   -0.30231E-04  4246   0.142E-02    0.226E-02
RMM:   6    -0.230349511103E+04    0.67603E-05   -0.48144E-05  2964   0.665E-03
  60 F= -.23235103E+04 E0= -.23235103E+04  d E =-.706035E-02  mag=    -0.0000
       N       E                     dE             d eps       ncg     rms          rms(c)
DAV:   1    -0.230348303235E+04    0.12085E-01   -0.11530E+00  4368   0.102E+00    0.368E-01
RMM:   2    -0.230349925096E+04   -0.16219E-01   -0.18152E-01  5880   0.245E-01    0.154E-01
RMM:   3    -0.230349966638E+04   -0.41542E-03   -0.93061E-03  5378   0.539E-02    0.103E-01
RMM:   4    -0.230349967383E+04   -0.74470E-05   -0.11237E-03  4519   0.164E-02    0.844E-02
RMM:   5    -0.230349957328E+04    0.10055E-03   -0.25137E-04  4138   0.127E-02    0.178E-02
RMM:   6    -0.230349956964E+04    0.36393E-05   -0.37570E-05  2902   0.575E-03
  61 F= -.23235143E+04 E0= -.23235143E+04  d E =-.401426E-02  mag=    -0.0000
       N       E                     dE             d eps       ncg     rms          rms(c)
DAV:   1    -0.230349195279E+04    0.76205E-02   -0.61075E-01  4416   0.741E-01    0.268E-01
RMM:   2    -0.230350056937E+04   -0.86166E-02   -0.96496E-02  5876   0.179E-01    0.112E-01
RMM:   3    -0.230350078332E+04   -0.21395E-03   -0.49273E-03  5236   0.388E-02    0.739E-02
RMM:   4    -0.230350078871E+04   -0.53961E-05   -0.59829E-04  4056   0.122E-02    0.621E-02
RMM:   5    -0.230350073114E+04    0.57571E-04   -0.13593E-04  3694   0.953E-03    0.133E-02
RMM:   6    -0.230350072842E+04    0.27257E-05   -0.21716E-05  2855   0.498E-03
  62 F= -.23235152E+04 E0= -.23235152E+04  d E =-.485293E-02  mag=    -0.0000
       N       E                     dE             d eps       ncg     rms          rms(c)
DAV:   1    -0.230349165893E+04    0.90722E-02   -0.10507E+00  4368   0.988E-01    0.340E-01
RMM:   2    -0.230350453024E+04   -0.12871E-01   -0.14420E-01  5874   0.226E-01    0.139E-01
RMM:   3    -0.230350476819E+04   -0.23795E-03   -0.71172E-03  5276   0.501E-02    0.873E-02
RMM:   4    -0.230350479469E+04   -0.26499E-04   -0.88927E-04  4555   0.159E-02    0.696E-02
RMM:   5    -0.230350472773E+04    0.66968E-04   -0.19770E-04  3772   0.113E-02    0.210E-02
RMM:   6    -0.230350472132E+04    0.64036E-05   -0.22298E-05  2852   0.471E-03
  63 F= -.23235189E+04 E0= -.23235189E+04  d E =-.375659E-02  mag=    -0.0000
       N       E                     dE             d eps       ncg     rms          rms(c)
DAV:   1    -0.230349793342E+04    0.67943E-02   -0.62973E-01  4384   0.764E-01    0.265E-01
RMM:   2    -0.230350568063E+04   -0.77472E-02   -0.86792E-02  5890   0.175E-01    0.108E-01
RMM:   3    -0.230350582927E+04   -0.14864E-03   -0.43217E-03  5194   0.399E-02    0.686E-02
RMM:   4    -0.230350584220E+04   -0.12927E-04   -0.52851E-04  4232   0.124E-02    0.543E-02
RMM:   5    -0.230350580294E+04    0.39253E-04   -0.12013E-04  3280   0.900E-03    0.169E-02
RMM:   6    -0.230350579917E+04    0.37770E-05   -0.14900E-05  2836   0.447E-03
  64 F= -.23235198E+04 E0= -.23235198E+04  d E =-.465568E-02  mag=    -0.0000
       N       E                     dE             d eps       ncg     rms          rms(c)
DAV:   1    -0.230349558851E+04    0.10214E-01   -0.12715E+00  4368   0.110E+00    0.385E-01
RMM:   2    -0.230350948579E+04   -0.13897E-01   -0.15652E-01  5829   0.245E-01    0.163E-01
RMM:   3    -0.230350969605E+04   -0.21026E-03   -0.80437E-03  5254   0.584E-02    0.113E-01
RMM:   4    -0.230350963908E+04    0.56964E-04   -0.10629E-03  4733   0.181E-02    0.853E-02
RMM:   5    -0.230350953428E+04    0.10480E-03   -0.28914E-04  4270   0.142E-02    0.186E-02
RMM:   6    -0.230350952894E+04    0.53440E-05   -0.40271E-05  2920   0.637E-03
  65 F= -.23235234E+04 E0= -.23235234E+04  d E =-.358044E-02  mag=    -0.0000
       N       E                     dE             d eps       ncg     rms          rms(c)
DAV:   1    -0.230350810568E+04    0.14286E-02   -0.15532E-01  4576   0.387E-01    0.134E-01
RMM:   2    -0.230350980693E+04   -0.17012E-02   -0.19183E-02  5808   0.867E-02    0.563E-02
RMM:   3    -0.230350982500E+04   -0.18073E-04   -0.91450E-04  4477   0.218E-02    0.379E-02
RMM:   4    -0.230350982038E+04    0.46212E-05   -0.13152E-04  3138   0.705E-03    0.306E-02
RMM:   5    -0.230350980625E+04    0.14130E-04   -0.36939E-05  2894   0.595E-03    0.664E-03
RMM:   6    -0.230350980580E+04    0.45230E-06   -0.72583E-06  2799   0.394E-03
  66 F= -.23235236E+04 E0= -.23235236E+04  d E =-.380618E-02  mag=    -0.0000
       N       E                     dE             d eps       ncg     rms          rms(c)
DAV:   1    -0.230350155666E+04    0.82496E-02   -0.96038E-01  4368   0.955E-01    0.326E-01
RMM:   2    -0.230351277678E+04   -0.11220E-01   -0.12542E-01  5843   0.215E-01    0.140E-01
RMM:   3    -0.230351298708E+04   -0.21030E-03   -0.64166E-03  5278   0.470E-02    0.962E-02
RMM:   4    -0.230351296073E+04    0.26347E-04   -0.81516E-04  4404   0.151E-02    0.738E-02
RMM:   5    -0.230351288661E+04    0.74117E-04   -0.20833E-04  4039   0.118E-02    0.154E-02
RMM:   6    -0.230351288430E+04    0.23191E-05   -0.27396E-05  2870   0.556E-03
  67 F= -.23235265E+04 E0= -.23235265E+04  d E =-.286191E-02  mag=    -0.0000
       N       E                     dE             d eps       ncg     rms          rms(c)
DAV:   1    -0.230350962750E+04    0.32591E-02   -0.32368E-01  4384   0.555E-01    0.189E-01
RMM:   2    -0.230351342044E+04   -0.37929E-02   -0.42403E-02  5840   0.125E-01    0.809E-02
RMM:   3    -0.230351348248E+04   -0.62039E-04   -0.20586E-03  4893   0.277E-02    0.552E-02
RMM:   4    -0.230351347566E+04    0.68137E-05   -0.27474E-04  3478   0.916E-03    0.435E-02
RMM:   5    -0.230351344949E+04    0.26178E-04   -0.71386E-05  3192   0.761E-03    0.880E-03
RMM:   6    -0.230351344888E+04    0.60294E-06   -0.11386E-05  2821   0.450E-03
  68 F= -.23235269E+04 E0= -.23235269E+04  d E =-.330275E-02  mag=    -0.0000
       N       E                     dE             d eps       ncg     rms          rms(c)
DAV:   1    -0.230350515476E+04    0.82947E-02   -0.91531E-01  4368   0.908E-01    0.319E-01
RMM:   2    -0.230351642329E+04   -0.11269E-01   -0.12648E-01  5894   0.209E-01    0.127E-01
RMM:   3    -0.230351663546E+04   -0.21217E-03   -0.61053E-03  5272   0.436E-02    0.774E-02
RMM:   4    -0.230351665364E+04   -0.18183E-04   -0.80098E-04  4521   0.152E-02    0.504E-02
RMM:   5    -0.230351662173E+04    0.31914E-04   -0.12026E-04  3045   0.960E-03    0.219E-02
RMM:   6    -0.230351661337E+04    0.83608E-05   -0.15659E-05  2816   0.400E-03
  69 F= -.23235299E+04 E0= -.23235299E+04  d E =-.299254E-02  mag=     0.0000
       N       E                     dE             d eps       ncg     rms          rms(c)
DAV:   1    -0.230350901067E+04    0.76111E-02   -0.68413E-01  4368   0.783E-01    0.277E-01
RMM:   2    -0.230351740861E+04   -0.83979E-02   -0.94313E-02  5907   0.180E-01    0.110E-01
RMM:   3    -0.230351756265E+04   -0.15404E-03   -0.44452E-03  5244   0.392E-02    0.676E-02
RMM:   4    -0.230351757772E+04   -0.15072E-04   -0.60000E-04  4365   0.132E-02    0.461E-02
RMM:   5    -0.230351754952E+04    0.28196E-04   -0.96795E-05  3005   0.856E-03    0.187E-02
RMM:   6    -0.230351754326E+04    0.62657E-05   -0.12586E-05  2818   0.380E-03
  70 F= -.23235307E+04 E0= -.23235307E+04  d E =-.377797E-02  mag=     0.0000
       N       E                     dE             d eps       ncg     rms          rms(c)
DAV:   1    -0.230350888557E+04    0.86640E-02   -0.77750E-01  4368   0.817E-01    0.295E-01
RMM:   2    -0.230352004135E+04   -0.11156E-01   -0.12498E-01  6014   0.196E-01    0.114E-01
RMM:   3    -0.230352032664E+04   -0.28529E-03   -0.60181E-03  5353   0.407E-02    0.681E-02
RMM:   4    -0.230352033362E+04   -0.69798E-05   -0.73111E-04  4205   0.133E-02    0.186E-02
RMM:   5    -0.230352033439E+04   -0.77049E-06   -0.37487E-05  2840   0.739E-03
  71 F= -.23235333E+04 E0= -.23235333E+04  d E =-.262345E-02  mag=    -0.0000
       N       E                     dE             d eps       ncg     rms          rms(c)
DAV:   1    -0.230348936292E+04    0.30971E-01   -0.22162E+00  4368   0.138E+00    0.496E-01
RMM:   2    -0.230352134166E+04   -0.31979E-01   -0.35769E-01  5962   0.328E-01    0.193E-01
RMM:   3    -0.230352216836E+04   -0.82671E-03   -0.17431E-02  5398   0.664E-02    0.115E-01
RMM:   4    -0.230352218578E+04   -0.17415E-04   -0.20994E-03  4490   0.219E-02    0.320E-02
RMM:   5    -0.230352218196E+04    0.38201E-05   -0.10050E-04  3282   0.114E-02    0.185E-02
RMM:   6    -0.230352217656E+04    0.53955E-05   -0.20134E-05  2830   0.372E-03
  72 F= -.23235349E+04 E0= -.23235349E+04  d E =-.418966E-02  mag=    -0.0000
       N       E                     dE             d eps       ncg     rms          rms(c)
DAV:   1    -0.230350914198E+04    0.13040E-01   -0.11044E+00  4368   0.964E-01    0.357E-01
RMM:   2    -0.230352510221E+04   -0.15960E-01   -0.17885E-01  5948   0.233E-01    0.136E-01
RMM:   3    -0.230352547121E+04   -0.36900E-03   -0.82046E-03  5397   0.465E-02    0.827E-02
RMM:   4    -0.230352551231E+04   -0.41104E-04   -0.10957E-03  4493   0.161E-02    0.505E-02
RMM:   5    -0.230352547756E+04    0.34749E-04   -0.12050E-04  3048   0.958E-03    0.224E-02
RMM:   6    -0.230352547086E+04    0.67041E-05   -0.16338E-05  2824   0.342E-03
  73 F= -.23235380E+04 E0= -.23235380E+04  d E =-.311755E-02  mag=    -0.0000
       N       E                     dE             d eps       ncg     rms          rms(c)
DAV:   1    -0.230349849434E+04    0.26983E-01   -0.19494E+00  4368   0.128E+00    0.474E-01
RMM:   2    -0.230352663471E+04   -0.28140E-01   -0.31543E-01  5972   0.312E-01    0.180E-01
RMM:   3    -0.230352728514E+04   -0.65043E-03   -0.14740E-02  5451   0.609E-02    0.111E-01
RMM:   4    -0.230352740402E+04   -0.11888E-03   -0.19893E-03  4731   0.214E-02    0.879E-02
RMM:   5    -0.230352727660E+04    0.12742E-03   -0.25262E-04  3617   0.128E-02    0.225E-02
RMM:   6    -0.230352727261E+04    0.39866E-05   -0.39337E-05  2874   0.430E-03
  74 F= -.23235396E+04 E0= -.23235396E+04  d E =-.469433E-02  mag=     0.0000
       N       E                     dE             d eps       ncg     rms          rms(c)
DAV:   1    -0.230350963482E+04    0.17642E-01   -0.15722E+00  4368   0.113E+00    0.422E-01
RMM:   2    -0.230353079375E+04   -0.21159E-01   -0.23806E-01  5995   0.272E-01    0.165E-01
RMM:   3    -0.230353123410E+04   -0.44035E-03   -0.10793E-02  5427   0.531E-02    0.998E-02
RMM:   4    -0.230353125306E+04   -0.18962E-04   -0.14231E-03  4612   0.187E-02    0.428E-02
RMM:   5    -0.230353124836E+04    0.46944E-05   -0.14293E-04  3034   0.107E-02    0.349E-02
RMM:   6    -0.230353122764E+04    0.20727E-04   -0.22057E-05  2829   0.391E-03    0.775E-03
RMM:   7    -0.230353122770E+04   -0.60842E-07   -0.57601E-06  2717   0.244E-03
  75 F= -.23235434E+04 E0= -.23235434E+04  d E =-.385186E-02  mag=     0.0000
       N       E                     dE             d eps       ncg     rms          rms(c)
DAV:   1    -0.230351573201E+04    0.15496E-01   -0.12164E+00  4368   0.989E-01    0.370E-01
RMM:   2    -0.230353206949E+04   -0.16337E-01   -0.18386E-01  5958   0.237E-01    0.145E-01
RMM:   3    -0.230353241909E+04   -0.34960E-03   -0.83903E-03  5314   0.446E-02    0.876E-02
RMM:   4    -0.230353244632E+04   -0.27233E-04   -0.11389E-03  4524   0.168E-02    0.460E-02
RMM:   5    -0.230353242133E+04    0.24985E-04   -0.11799E-04  3004   0.957E-03    0.259E-02
RMM:   6    -0.230353241069E+04    0.10648E-04   -0.17187E-05  2824   0.344E-03    0.698E-03
RMM:   7    -0.230353241056E+04    0.12583E-06   -0.41109E-06  2703   0.235E-03
  76 F= -.23235445E+04 E0= -.23235445E+04  d E =-.495363E-02  mag=     0.0000
       N       E                     dE             d eps       ncg     rms          rms(c)
DAV:   1    -0.230351128224E+04    0.21128E-01   -0.16903E+00  4368   0.113E+00    0.440E-01
RMM:   2    -0.230353552599E+04   -0.24244E-01   -0.27236E-01  5971   0.279E-01    0.177E-01
RMM:   3    -0.230353609975E+04   -0.57376E-03   -0.12967E-02  5335   0.538E-02    0.107E-01
RMM:   4    -0.230353617771E+04   -0.77958E-04   -0.16738E-03  4657   0.188E-02    0.773E-02
RMM:   5    -0.230353609538E+04    0.82334E-04   -0.24206E-04  3423   0.115E-02    0.267E-02
RMM:   6    -0.230353608444E+04    0.10939E-04   -0.28139E-05  2856   0.456E-03    0.825E-03
RMM:   7    -0.230353608392E+04    0.51262E-06   -0.73019E-06  2828   0.294E-03
  77 F= -.23235480E+04 E0= -.23235480E+04  d E =-.348988E-02  mag=    -0.0000
       N       E                     dE             d eps       ncg     rms          rms(c)
DAV:   1    -0.230352759675E+04    0.84877E-02   -0.62506E-01  4384   0.685E-01    0.268E-01
RMM:   2    -0.230353653092E+04   -0.89342E-02   -0.10040E-01  5965   0.168E-01    0.107E-01
RMM:   3    -0.230353673455E+04   -0.20363E-03   -0.46820E-03  5187   0.323E-02    0.645E-02
RMM:   4    -0.230353675524E+04   -0.20698E-04   -0.61303E-04  4194   0.117E-02    0.404E-02
RMM:   5    -0.230353673459E+04    0.20659E-04   -0.76670E-05  2929   0.716E-03    0.171E-02
RMM:   6    -0.230353672960E+04    0.49817E-05   -0.10492E-05  2816   0.311E-03
  78 F= -.23235486E+04 E0= -.23235486E+04  d E =-.403007E-02  mag=     0.0000
       N       E                     dE             d eps       ncg     rms          rms(c)
DAV:   1    -0.230351719728E+04    0.19537E-01   -0.14953E+00  4368   0.103E+00    0.419E-01
RMM:   2    -0.230353969044E+04   -0.22493E-01   -0.25270E-01  6050   0.257E-01    0.162E-01
RMM:   3    -0.230354024755E+04   -0.55712E-03   -0.11721E-02  5394   0.491E-02    0.973E-02
RMM:   4    -0.230354026965E+04   -0.22100E-04   -0.14455E-03  4389   0.163E-02    0.275E-02
RMM:   5    -0.230354027565E+04   -0.59977E-05   -0.83312E-05  2902   0.902E-03
  79 F= -.23235518E+04 E0= -.23235518E+04  d E =-.328599E-02  mag=     0.0000
       N       E                     dE             d eps       ncg     rms          rms(c)
DAV:   1    -0.230350085718E+04    0.39412E-01   -0.26764E+00  4368   0.137E+00    0.559E-01
RMM:   2    -0.230354125726E+04   -0.40400E-01   -0.45325E-01  6046   0.346E-01    0.217E-01
RMM:   3    -0.230354225517E+04   -0.99791E-03   -0.21031E-02  5416   0.641E-02    0.131E-01
RMM:   4    -0.230354230161E+04   -0.46437E-04   -0.26270E-03  4654   0.219E-02    0.413E-02
RMM:   5    -0.230354231866E+04   -0.17053E-04   -0.19361E-04  3216   0.119E-02    0.446E-02
RMM:   6    -0.230354228305E+04    0.35611E-04   -0.38069E-05  2837   0.462E-03    0.105E-02
RMM:   7    -0.230354228233E+04    0.72608E-06   -0.98802E-06  2790   0.272E-03
  80 F= -.23235535E+04 E0= -.23235535E+04  d E =-.496447E-02  mag=     0.0000
       N       E                     dE             d eps       ncg     rms          rms(c)
DAV:   1    -0.230351379650E+04    0.28487E-01   -0.21487E+00  4384   0.122E+00    0.516E-01
RMM:   2    -0.230354611320E+04   -0.32317E-01   -0.36438E-01  6048   0.312E-01    0.197E-01
RMM:   3    -0.230354695100E+04   -0.83779E-03   -0.17134E-02  5486   0.599E-02    0.131E-01
RMM:   4    -0.230354710769E+04   -0.15669E-03   -0.23204E-03  4662   0.202E-02    0.116E-01
RMM:   5    -0.230354690796E+04    0.19973E-03   -0.34090E-04  4122   0.129E-02    0.223E-02
RMM:   6    -0.230354690821E+04   -0.24975E-06   -0.57639E-05  2894   0.601E-03
  81 F= -.23235578E+04 E0= -.23235578E+04  d E =-.424194E-02  mag=     0.0000
       N       E                     dE             d eps       ncg     rms          rms(c)
DAV:   1    -0.230349450374E+04    0.52404E-01   -0.34933E+00  4368   0.155E+00    0.659E-01
RMM:   2    -0.230354696174E+04   -0.52458E-01   -0.59157E-01  6056   0.397E-01    0.252E-01
RMM:   3    -0.230354834397E+04   -0.13822E-02   -0.28444E-02  5518   0.775E-02    0.168E-01
RMM:   4    -0.230354859016E+04   -0.24620E-03   -0.38041E-03  4945   0.258E-02    0.148E-01
RMM:   5    -0.230354826193E+04    0.32823E-03   -0.55988E-04  4435   0.164E-02    0.281E-02
RMM:   6    -0.230354826215E+04   -0.21770E-06   -0.94930E-05  2946   0.708E-03
  82 F= -.23235587E+04 E0= -.23235587E+04  d E =-.512944E-02  mag=     0.0000
       N       E                     dE             d eps       ncg     rms          rms(c)
DAV:   1    -0.230354342715E+04    0.48348E-02   -0.32240E-01  4448   0.469E-01    0.201E-01
RMM:   2    -0.230354823188E+04   -0.48047E-02   -0.54300E-02  6167   0.121E-01    0.775E-02
RMM:   3    -0.230354838323E+04   -0.15135E-03   -0.28923E-03  4702   0.256E-02    0.514E-02
RMM:   4    -0.230354839841E+04   -0.15181E-04   -0.33740E-04  3089   0.810E-03    0.426E-02
RMM:   5    -0.230354837243E+04    0.25981E-04   -0.54617E-05  2886   0.601E-03    0.926E-03
RMM:   6    -0.230354837245E+04   -0.20897E-07   -0.10633E-05  2816   0.381E-03
  83 F= -.23235589E+04 E0= -.23235589E+04  d E =-.537866E-02  mag=     0.0000
       N       E                     dE             d eps       ncg     rms          rms(c)
DAV:   1    -0.230350977045E+04    0.38602E-01   -0.24759E+00  4368   0.127E+00    0.554E-01
RMM:   2    -0.230355149267E+04   -0.41722E-01   -0.46793E-01  6108   0.336E-01    0.213E-01
RMM:   3    -0.230355282722E+04   -0.13346E-02   -0.23204E-02  5551   0.652E-02    0.148E-01
RMM:   4    -0.230355296925E+04   -0.14203E-03   -0.28557E-03  4460   0.203E-02    0.122E-01
RMM:   5    -0.230355275511E+04    0.21414E-03   -0.40725E-04  4128   0.130E-02    0.221E-02
RMM:   6    -0.230355275476E+04    0.35086E-06   -0.70802E-05  2898   0.645E-03
  84 F= -.23235628E+04 E0= -.23235628E+04  d E =-.390004E-02  mag=    -0.0000
       N       E                     dE             d eps       ncg     rms          rms(c)
DAV:   1    -0.230351324406E+04    0.39511E-01   -0.23721E+00  4384   0.124E+00    0.542E-01
RMM:   2    -0.230355326491E+04   -0.40021E-01   -0.44855E-01  6098   0.332E-01    0.210E-01
RMM:   3    -0.230355449329E+04   -0.12284E-02   -0.21400E-02  5610   0.615E-02    0.149E-01
RMM:   4    -0.230355459538E+04   -0.10210E-03   -0.27501E-03  4398   0.197E-02    0.119E-01
RMM:   5    -0.230355440124E+04    0.19414E-03   -0.38945E-04  4146   0.126E-02    0.226E-02
RMM:   6    -0.230355440008E+04    0.11583E-05   -0.69694E-05  2904   0.656E-03
  85 F= -.23235640E+04 E0= -.23235640E+04  d E =-.508761E-02  mag=    -0.0000
       N       E                     dE             d eps       ncg     rms          rms(c)
DAV:   1    -0.230350629438E+04    0.48107E-01   -0.32713E+00  4384   0.147E+00    0.632E-01
RMM:   2    -0.230355788107E+04   -0.51587E-01   -0.57951E-01  6038   0.386E-01    0.251E-01
RMM:   3    -0.230355941220E+04   -0.15311E-02   -0.28077E-02  5506   0.763E-02    0.185E-01
RMM:   4    -0.230355945508E+04   -0.42889E-04   -0.36982E-03  4755   0.243E-02    0.140E-01
RMM:   5    -0.230355919587E+04    0.25921E-03   -0.51521E-04  4278   0.155E-02    0.265E-02
RMM:   6    -0.230355919900E+04   -0.31297E-05   -0.11843E-04  2986   0.786E-03    0.113E-02
RMM:   7    -0.230355919612E+04    0.28825E-05   -0.11498E-05  2830   0.363E-03
  86 F= -.23235685E+04 E0= -.23235685E+04  d E =-.448850E-02  mag=     0.0000
       N       E                     dE             d eps       ncg     rms          rms(c)
DAV:   1    -0.230353783707E+04    0.21362E-01   -0.13858E+00  4384   0.961E-01    0.413E-01
RMM:   2    -0.230355979209E+04   -0.21955E-01   -0.24663E-01  6080   0.253E-01    0.165E-01
RMM:   3    -0.230356045341E+04   -0.66132E-03   -0.11992E-02  5478   0.513E-02    0.121E-01
RMM:   4    -0.230356045895E+04   -0.55416E-05   -0.15434E-03  3998   0.160E-02    0.901E-02
RMM:   5    -0.230356035334E+04    0.10561E-03   -0.22626E-04  3912   0.109E-02    0.170E-02
RMM:   6    -0.230356035464E+04   -0.12978E-05   -0.46857E-05  2896   0.574E-03
  87 F= -.23235695E+04 E0= -.23235695E+04  d E =-.546061E-02  mag=    -0.0000
       N       E                     dE             d eps       ncg     rms          rms(c)
DAV:   1    -0.230352269508E+04    0.37658E-01   -0.29167E+00  4368   0.142E+00    0.590E-01
RMM:   2    -0.230356405136E+04   -0.41356E-01   -0.46669E-01  6022   0.362E-01    0.236E-01
RMM:   3    -0.230356514051E+04   -0.10892E-02   -0.23137E-02  5477   0.696E-02    0.161E-01
RMM:   4    -0.230356529358E+04   -0.15306E-03   -0.31088E-03  4882   0.240E-02    0.137E-01
RMM:   5    -0.230356500756E+04    0.28602E-03   -0.50388E-04  4458   0.156E-02    0.247E-02
RMM:   6    -0.230356500638E+04    0.11792E-05   -0.87100E-05  2992   0.697E-03
  88 F= -.23235739E+04 E0= -.23235739E+04  d E =-.443420E-02  mag=     0.0000
       N       E                     dE             d eps       ncg     rms          rms(c)
DAV:   1    -0.230355669432E+04    0.83132E-02   -0.61484E-01  4384   0.650E-01    0.271E-01
RMM:   2    -0.230356533807E+04   -0.86438E-02   -0.97531E-02  5998   0.166E-01    0.110E-01
RMM:   3    -0.230356556356E+04   -0.22548E-03   -0.48634E-03  5278   0.345E-02    0.761E-02
RMM:   4    -0.230356558445E+04   -0.20896E-04   -0.64701E-04  3613   0.114E-02    0.621E-02
RMM:   5    -0.230356552564E+04    0.58810E-04   -0.11057E-04  3363   0.832E-03    0.115E-02
RMM:   6    -0.230356552472E+04    0.92323E-06   -0.21068E-05  2853   0.477E-03
  89 F= -.23235743E+04 E0= -.23235743E+04  d E =-.485969E-02  mag=    -0.0000
       N       E                     dE             d eps       ncg     rms          rms(c)
DAV:   1    -0.230351964546E+04    0.45880E-01   -0.32407E+00  4368   0.151E+00    0.620E-01
RMM:   2    -0.230356819877E+04   -0.48553E-01   -0.54425E-01  6048   0.387E-01    0.246E-01
RMM:   3    -0.230356974101E+04   -0.15422E-02   -0.29245E-02  5500   0.767E-02    0.157E-01
RMM:   4    -0.230357005208E+04   -0.31108E-03   -0.36223E-03  4991   0.250E-02    0.143E-01
RMM:   5    -0.230356971677E+04    0.33531E-03   -0.55718E-04  4340   0.154E-02    0.261E-02
RMM:   6    -0.230356971551E+04    0.12683E-05   -0.83065E-05  2965   0.593E-03
  90 F= -.23235781E+04 E0= -.23235781E+04  d E =-.377778E-02  mag=    -0.0000
       N       E                     dE             d eps       ncg     rms          rms(c)
DAV:   1    -0.230356562992E+04    0.40869E-02   -0.29238E-01  4496   0.450E-01    0.186E-01
RMM:   2    -0.230356996973E+04   -0.43398E-02   -0.48783E-02  6036   0.115E-01    0.751E-02
RMM:   3    -0.230357007047E+04   -0.10073E-03   -0.21964E-03  4542   0.243E-02    0.501E-02
RMM:   4    -0.230357008963E+04   -0.19161E-04   -0.30426E-04  3128   0.804E-03    0.432E-02
RMM:   5    -0.230357006117E+04    0.28453E-04   -0.55265E-05  2896   0.597E-03    0.786E-03
RMM:   6    -0.230357006112E+04    0.50335E-07   -0.10075E-05  2816   0.357E-03
  91 F= -.23235783E+04 E0= -.23235783E+04  d E =-.400401E-02  mag=    -0.0000
       N       E                     dE             d eps       ncg     rms          rms(c)
DAV:   1    -0.230352748636E+04    0.42575E-01   -0.30765E+00  4368   0.150E+00    0.615E-01
RMM:   2    -0.230357269386E+04   -0.45207E-01   -0.50792E-01  5973   0.373E-01    0.248E-01
RMM:   3    -0.230357403177E+04   -0.13379E-02   -0.26032E-02  5461   0.768E-02    0.177E-01
RMM:   4    -0.230357408356E+04   -0.51793E-04   -0.33157E-03  4911   0.249E-02    0.141E-01
RMM:   5    -0.230357380624E+04    0.27732E-03   -0.54567E-04  4438   0.168E-02    0.247E-02
RMM:   6    -0.230357380811E+04   -0.18651E-05   -0.11011E-04  3012   0.808E-03    0.112E-02
RMM:   7    -0.230357380498E+04    0.31309E-05   -0.12434E-05  2830   0.383E-03
  92 F= -.23235818E+04 E0= -.23235818E+04  d E =-.343653E-02  mag=    -0.0000
       N       E                     dE             d eps       ncg     rms          rms(c)
DAV:   1    -0.230357351027E+04    0.29784E-03   -0.23745E-02  5184   0.131E-01    0.542E-02
RMM:   2    -0.230357385175E+04   -0.34148E-03   -0.38470E-03  5840   0.331E-02    0.222E-02
RMM:   3    -0.230357386085E+04   -0.91031E-05   -0.19597E-04  2982   0.806E-03    0.153E-02
RMM:   4    -0.230357386168E+04   -0.82611E-06   -0.25358E-05  2826   0.307E-03
  93 F= -.23235818E+04 E0= -.23235818E+04  d E =-.346729E-02  mag=    -0.0000
       N       E                     dE             d eps       ncg     rms          rms(c)
DAV:   1    -0.230354921976E+04    0.24641E-01   -0.18731E+00  4368   0.119E+00    0.483E-01
RMM:   2    -0.230357609278E+04   -0.26873E-01   -0.30128E-01  5984   0.296E-01    0.204E-01
RMM:   3    -0.230357694543E+04   -0.85264E-03   -0.16808E-02  5513   0.646E-02    0.158E-01
RMM:   4    -0.230357678043E+04    0.16500E-03   -0.19174E-03  4582   0.196E-02    0.995E-02
RMM:   5    -0.230357665536E+04    0.12507E-03   -0.33139E-04  4279   0.138E-02    0.231E-02
RMM:   6    -0.230357665311E+04    0.22453E-05   -0.75296E-05  2954   0.748E-03
  94 F= -.23235843E+04 E0= -.23235843E+04  d E =-.254085E-02  mag=    -0.0000
       N       E                     dE             d eps       ncg     rms          rms(c)
DAV:   1    -0.230357421945E+04    0.24359E-02   -0.17702E-01  4464   0.368E-01    0.148E-01
RMM:   2    -0.230357674353E+04   -0.25241E-02   -0.28276E-02  5992   0.915E-02    0.636E-02
RMM:   3    -0.230357681347E+04   -0.69941E-04   -0.15173E-03  4180   0.213E-02    0.482E-02
RMM:   4    -0.230357679917E+04    0.14302E-04   -0.17831E-04  3020   0.690E-03    0.308E-02
RMM:   5    -0.230357678659E+04    0.12577E-04   -0.33422E-05  2860   0.524E-03    0.763E-03
RMM:   6    -0.230357678634E+04    0.25492E-06   -0.89307E-06  2802   0.384E-03
  95 F= -.23235844E+04 E0= -.23235844E+04  d E =-.259877E-02  mag=     0.0000
       N       E                     dE             d eps       ncg     rms          rms(c)
DAV:   1    -0.230355695299E+04    0.19834E-01   -0.14312E+00  4368   0.106E+00    0.411E-01
RMM:   2    -0.230357876060E+04   -0.21808E-01   -0.24233E-01  6000   0.263E-01    0.184E-01
RMM:   3    -0.230357954104E+04   -0.78044E-03   -0.14060E-02  5479   0.573E-02    0.143E-01
RMM:   4    -0.230357938146E+04    0.15958E-03   -0.14763E-03  4264   0.165E-02    0.849E-02
RMM:   5    -0.230357929830E+04    0.83161E-04   -0.24346E-04  4062   0.117E-02    0.195E-02
RMM:   6    -0.230357929805E+04    0.25007E-06   -0.52517E-05  2909   0.629E-03
  96 F= -.23235867E+04 E0= -.23235867E+04  d E =-.230151E-02  mag=     0.0000
       N       E                     dE             d eps       ncg     rms          rms(c)
DAV:   1    -0.230355895140E+04    0.20347E-01   -0.13584E+00  4368   0.103E+00    0.400E-01
RMM:   2    -0.230357965383E+04   -0.20702E-01   -0.22995E-01  5992   0.254E-01    0.179E-01
RMM:   3    -0.230358031788E+04   -0.66405E-03   -0.12575E-02  5520   0.532E-02    0.140E-01
RMM:   4    -0.230358019215E+04    0.12573E-03   -0.16624E-03  4220   0.165E-02    0.827E-02
RMM:   5    -0.230358011398E+04    0.78161E-04   -0.23047E-04  4038   0.112E-02    0.191E-02
RMM:   6    -0.230358011339E+04    0.59351E-06   -0.46271E-05  2906   0.620E-03
  97 F= -.23235873E+04 E0= -.23235873E+04  d E =-.291751E-02  mag=     0.0000
       N       E                     dE             d eps       ncg     rms          rms(c)
DAV:   1    -0.230356473264E+04    0.15381E-01   -0.13170E+00  4368   0.102E+00    0.382E-01
RMM:   2    -0.230358244913E+04   -0.17716E-01   -0.19739E-01  5937   0.244E-01    0.182E-01
RMM:   3    -0.230358296600E+04   -0.51687E-03   -0.10767E-02  5440   0.551E-02    0.142E-01
RMM:   4    -0.230358277601E+04    0.18999E-03   -0.12463E-03  4376   0.163E-02    0.826E-02
RMM:   5    -0.230358269797E+04    0.78043E-04   -0.23655E-04  4061   0.118E-02    0.168E-02
RMM:   6    -0.230358269794E+04    0.31141E-07   -0.51979E-05  2912   0.642E-03
  98 F= -.23235898E+04 E0= -.23235898E+04  d E =-.252048E-02  mag=     0.0000
       N       E                     dE             d eps       ncg     rms          rms(c)
DAV:   1    -0.230356415268E+04    0.18545E-01   -0.13880E+00  4368   0.104E+00    0.393E-01
RMM:   2    -0.230358290785E+04   -0.18755E-01   -0.20864E-01  5940   0.251E-01    0.188E-01
RMM:   3    -0.230358346405E+04   -0.55620E-03   -0.11757E-02  5508   0.546E-02    0.145E-01
RMM:   4    -0.230358326796E+04    0.19609E-03   -0.13295E-03  4419   0.166E-02    0.850E-02
RMM:   5    -0.230358318354E+04    0.84418E-04   -0.25169E-04  4103   0.121E-02    0.178E-02
RMM:   6    -0.230358318299E+04    0.54785E-06   -0.56010E-05  2900   0.655E-03
  99 F= -.23235902E+04 E0= -.23235902E+04  d E =-.294660E-02  mag=     0.0000
       N       E                     dE             d eps       ncg     rms          rms(c)
DAV:   1    -0.230356400838E+04    0.19175E-01   -0.17257E+00  4368   0.117E+00    0.428E-01
RMM:   2    -0.230358523508E+04   -0.21227E-01   -0.23691E-01  5934   0.274E-01    0.202E-01
RMM:   3    -0.230358584733E+04   -0.61225E-03   -0.13512E-02  5502   0.612E-02    0.157E-01
RMM:   4    -0.230358563645E+04    0.21088E-03   -0.15086E-03  4572   0.182E-02    0.947E-02
RMM:   5    -0.230358553192E+04    0.10453E-03   -0.31606E-04  4242   0.133E-02    0.188E-02
RMM:   6    -0.230358553305E+04   -0.11276E-05   -0.61925E-05  2932   0.689E-03
 100 F= -.23235925E+04 E0= -.23235925E+04  d E =-.223059E-02  mag=    -0.0000
       N       E                     dE             d eps       ncg     rms          rms(c)
DAV:   1    -0.230358051510E+04    0.50168E-02   -0.42692E-01  4416   0.582E-01    0.213E-01
RMM:   2    -0.230358575063E+04   -0.52355E-02   -0.58407E-02  5938   0.137E-01    0.101E-01
RMM:   3    -0.230358589758E+04   -0.14695E-03   -0.33632E-03  4974   0.313E-02    0.778E-02
RMM:   4    -0.230358584730E+04    0.50280E-04   -0.36764E-04  3325   0.949E-03    0.474E-02
RMM:   5    -0.230358581963E+04    0.27668E-04   -0.80378E-05  3237   0.745E-03    0.961E-03
RMM:   6    -0.230358581984E+04   -0.21132E-06   -0.16952E-05  2847   0.466E-03
 101 F= -.23235927E+04 E0= -.23235927E+04  d E =-.246019E-02  mag=    -0.0000
       N       E                     dE             d eps       ncg     rms          rms(c)
DAV:   1    -0.230357818338E+04    0.76362E-02   -0.79854E-01  4368   0.846E-01    0.310E-01
RMM:   2    -0.230358812267E+04   -0.99393E-02   -0.11111E-01  5887   0.197E-01    0.138E-01
RMM:   3    -0.230358837494E+04   -0.25228E-03   -0.64864E-03  5359   0.465E-02    0.103E-01
RMM:   4    -0.230358830090E+04    0.74047E-04   -0.72683E-04  4256   0.142E-02    0.682E-02
RMM:   5    -0.230358823151E+04    0.69391E-04   -0.18593E-04  4108   0.113E-02    0.131E-02
[...]
DAV:   1    -0.230363194556E+04    0.12836E-02   -0.19571E-01  4384   0.428E-01    0.130E-01
RMM:   2    -0.230363364065E+04   -0.16951E-02   -0.18753E-02  5710   0.833E-02    0.736E-02
RMM:   3    -0.230363367632E+04   -0.35667E-04   -0.15654E-03  4353   0.287E-02    0.475E-02
RMM:   4    -0.230363365445E+04    0.21873E-04   -0.16499E-04  3392   0.726E-03    0.321E-02
RMM:   5    -0.230363363869E+04    0.15753E-04   -0.57369E-05  2996   0.701E-03    0.110E-02
RMM:   6    -0.230363363757E+04    0.11233E-05   -0.11251E-05  2818   0.445E-03
 165 F= -.23236309E+04 E0= -.23236309E+04  d E =-.421958E-03  mag=     0.0000
       N       E                     dE             d eps       ncg     rms          rms(c)
DAV:   1    -0.230363356552E+04    0.73173E-04   -0.81288E-03  4960   0.873E-02    0.270E-02
RMM:   2    -0.230363363839E+04   -0.72867E-04   -0.79507E-04  5692   0.177E-02    0.156E-02
RMM:   3    -0.230363363975E+04   -0.13594E-05   -0.71740E-05  2852   0.634E-03
 166 F= -.23236309E+04 E0= -.23236309E+04  d E =-.426625E-03  mag=     0.0000
       N       E                     dE             d eps       ncg     rms          rms(c)
DAV:   1    -0.230363238138E+04    0.12570E-02   -0.20258E-01  4384   0.446E-01    0.124E-01
RMM:   2    -0.230363409495E+04   -0.17136E-02   -0.18970E-02  5738   0.847E-02    0.687E-02
RMM:   3    -0.230363414123E+04   -0.46277E-04   -0.15758E-03  4360   0.280E-02    0.446E-02
RMM:   4    -0.230363412684E+04    0.14386E-04   -0.17200E-04  3556   0.733E-03    0.307E-02
RMM:   5    -0.230363411360E+04    0.13244E-04   -0.58759E-05  2916   0.711E-03    0.149E-02
RMM:   6    -0.230363411037E+04    0.32308E-05   -0.10944E-05  2803   0.442E-03
 167 F= -.23236313E+04 E0= -.23236313E+04  d E =-.388364E-03  mag=     0.0000
       N       E                     dE             d eps       ncg     rms          rms(c)
DAV:   1    -0.230363403199E+04    0.81607E-04   -0.11109E-02  4768   0.105E-01    0.299E-02
RMM:   2    -0.230363412776E+04   -0.95773E-04   -0.10545E-03  5776   0.207E-02    0.170E-02
RMM:   3    -0.230363413029E+04   -0.25264E-05   -0.95340E-05  2874   0.719E-03
 168 F= -.23236313E+04 E0= -.23236313E+04  d E =-.388976E-03  mag=     0.0000
       N       E                     dE             d eps       ncg     rms          rms(c)
DAV:   1    -0.230363270641E+04    0.14214E-02   -0.21644E-01  4368   0.464E-01    0.135E-01
RMM:   2    -0.230363453661E+04   -0.18302E-02   -0.20215E-02  5792   0.889E-02    0.752E-02
RMM:   3    -0.230363458112E+04   -0.44509E-04   -0.18011E-03  4423   0.291E-02    0.483E-02
RMM:   4    -0.230363455903E+04    0.22088E-04   -0.17852E-04  3494   0.740E-03    0.329E-02
RMM:   5    -0.230363454306E+04    0.15967E-04   -0.64171E-05  2996   0.734E-03    0.127E-02
RMM:   6    -0.230363454134E+04    0.17260E-05   -0.11704E-05  2822   0.461E-03
 169 F= -.23236316E+04 E0= -.23236316E+04  d E =-.324214E-03  mag=     0.0000
       N       E                     dE             d eps       ncg     rms          rms(c)
DAV:   1    -0.230363432795E+04    0.21511E-03   -0.24752E-02  4512   0.157E-01    0.464E-02
RMM:   2    -0.230363454127E+04   -0.21332E-03   -0.23363E-03  5888   0.308E-02    0.269E-02
RMM:   3    -0.230363454444E+04   -0.31725E-05   -0.21725E-04  2986   0.105E-02    0.166E-02
RMM:   4    -0.230363454164E+04    0.28041E-05   -0.20472E-05  2814   0.334E-03
 170 F= -.23236316E+04 E0= -.23236316E+04  d E =-.295140E-03  mag=     0.0000
       N       E                     dE             d eps       ncg     rms          rms(c)
DAV:   1    -0.230363445017E+04    0.94272E-04   -0.11731E-02  4384   0.108E-01    0.300E-02
RMM:   2    -0.230363454684E+04   -0.96669E-04   -0.10690E-03  5856   0.213E-02    0.147E-02
RMM:   3    -0.230363455058E+04   -0.37377E-05   -0.98036E-05  2804   0.725E-03
 171 F= -.23236316E+04 E0= -.23236316E+04  d E =-.323981E-03  mag=     0.0000
       N       E                     dE             d eps       ncg     rms          rms(c)
DAV:   1    -0.230363320642E+04    0.13404E-02   -0.18173E-01  4368   0.416E-01    0.125E-01
RMM:   2    -0.230363491558E+04   -0.17092E-02   -0.18659E-02  5750   0.840E-02    0.832E-02
RMM:   3    -0.230363491362E+04    0.19636E-05   -0.17097E-03  4227   0.296E-02    0.463E-02
RMM:   4    -0.230363488836E+04    0.25261E-04   -0.16021E-04  3273   0.684E-03    0.290E-02
RMM:   5    -0.230363487203E+04    0.16328E-04   -0.52418E-05  3012   0.665E-03    0.760E-03
RMM:   6    -0.230363487146E+04    0.56457E-06   -0.95492E-06  2811   0.446E-03
 172 F= -.23236319E+04 E0= -.23236319E+04  d E =-.287851E-03  mag=     0.0000
       N       E                     dE             d eps       ncg     rms          rms(c)
DAV:   1    -0.230363486105E+04    0.10973E-04   -0.10845E-03  5120   0.325E-02    0.103E-02
RMM:   2    -0.230363487224E+04   -0.11188E-04   -0.11886E-04  3512   0.723E-03    0.741E-03
RMM:   3    -0.230363487192E+04    0.32404E-06   -0.12718E-05  2446   0.401E-03
 173 F= -.23236319E+04 E0= -.23236319E+04  d E =-.285748E-03  mag=    -0.0000
       N       E                     dE             d eps       ncg     rms          rms(c)
DAV:   1    -0.230363402415E+04    0.84809E-03   -0.13124E-01  4384   0.359E-01    0.112E-01
RMM:   2    -0.230363523200E+04   -0.12078E-02   -0.13145E-02  5800   0.730E-02    0.717E-02
RMM:   3    -0.230363522101E+04    0.10986E-04   -0.11870E-03  3997   0.244E-02    0.420E-02
RMM:   4    -0.230363519779E+04    0.23223E-04   -0.11394E-04  3115   0.647E-03    0.254E-02
RMM:   5    -0.230363518706E+04    0.10727E-04   -0.42746E-05  2961   0.637E-03    0.710E-03
RMM:   6    -0.230363518687E+04    0.19553E-06   -0.75352E-06  2812   0.423E-03
 174 F= -.23236321E+04 E0= -.23236321E+04  d E =-.256545E-03  mag=    -0.0000
       N       E                     dE             d eps       ncg     rms          rms(c)
DAV:   1    -0.230363517364E+04    0.13419E-04   -0.19478E-03  5168   0.439E-02    0.142E-02
RMM:   2    -0.230363519281E+04   -0.19167E-04   -0.20339E-04  4213   0.934E-03    0.947E-03
RMM:   3    -0.230363519222E+04    0.58945E-06   -0.18309E-05  2560   0.448E-03
 175 F= -.23236321E+04 E0= -.23236321E+04  d E =-.254749E-03  mag=     0.0000
       N       E                     dE             d eps       ncg     rms          rms(c)
DAV:   1    -0.230363466716E+04    0.52565E-03   -0.11181E-01  4368   0.334E-01    0.949E-02
RMM:   2    -0.230363553208E+04   -0.86492E-03   -0.94332E-03  5736   0.645E-02    0.591E-02
RMM:   3    -0.230363552801E+04    0.40738E-05   -0.81575E-04  3805   0.212E-02    0.366E-02
RMM:   4    -0.230363551145E+04    0.16554E-04   -0.84629E-05  2978   0.600E-03    0.229E-02
RMM:   5    -0.230363550299E+04    0.84611E-05   -0.35484E-05  2901   0.592E-03
 176 F= -.23236324E+04 E0= -.23236324E+04  d E =-.232826E-03  mag=     0.0000
       N       E                     dE             d eps       ncg     rms          rms(c)
DAV:   1    -0.230363525901E+04    0.25244E-03   -0.35781E-02  4384   0.189E-01    0.544E-02
RMM:   2    -0.230363554111E+04   -0.28210E-03   -0.30796E-03  6115   0.386E-02    0.331E-02
RMM:   3    -0.230363554061E+04    0.50059E-06   -0.26956E-04  3124   0.119E-02    0.204E-02
RMM:   4    -0.230363553560E+04    0.50145E-05   -0.25438E-05  2826   0.399E-03
 177 F= -.23236324E+04 E0= -.23236324E+04  d E =-.221144E-03  mag=    -0.0000
       N       E                     dE             d eps       ncg     rms          rms(c)
DAV:   1    -0.230363546497E+04    0.75641E-04   -0.40075E-02  4384   0.197E-01    0.498E-02
RMM:   2    -0.230363573672E+04   -0.27174E-03   -0.29651E-03  5901   0.357E-02    0.339E-02
RMM:   3    -0.230363573644E+04    0.28088E-06   -0.23859E-04  3139   0.120E-02    0.214E-02
RMM:   4    -0.230363573233E+04    0.41069E-05   -0.27348E-05  2830   0.386E-03
 178 F= -.23236325E+04 E0= -.23236325E+04  d E =-.148571E-03  mag=    -0.0000
       N       E                     dE             d eps       ncg     rms          rms(c)
DAV:   1    -0.230363436600E+04    0.13704E-02   -0.23754E-01  4368   0.480E-01    0.119E-01
RMM:   2    -0.230363598533E+04   -0.16193E-02   -0.17654E-02  5724   0.876E-02    0.780E-02
RMM:   3    -0.230363600307E+04   -0.17737E-04   -0.15069E-03  4292   0.310E-02    0.491E-02
RMM:   4    -0.230363598038E+04    0.22689E-04   -0.15257E-04  3278   0.719E-03    0.321E-02
RMM:   5    -0.230363596614E+04    0.14242E-04   -0.60752E-05  3090   0.712E-03    0.897E-03
RMM:   6    -0.230363596565E+04    0.48619E-06   -0.93487E-06  2822   0.438E-03
 179 F= -.23236326E+04 E0= -.23236326E+04  d E =-.265382E-03  mag=    -0.0000
       N       E                     dE             d eps       ncg     rms          rms(c)
DAV:   1    -0.230363593921E+04    0.26927E-04   -0.68291E-02  4384   0.262E-01    0.730E-02
RMM:   2    -0.230363633975E+04   -0.40054E-03   -0.44535E-03  5692   0.480E-02    0.397E-02
RMM:   3    -0.230363633831E+04    0.14410E-05   -0.35348E-04  3426   0.150E-02    0.268E-02
RMM:   4    -0.230363633034E+04    0.79726E-05   -0.45403E-05  2876   0.531E-03
 180 F= -.23236329E+04 E0= -.23236329E+04  d E =-.297674E-03  mag=     0.0000
       N       E                     dE             d eps       ncg     rms          rms(c)
DAV:   1    -0.230363617401E+04    0.16430E-03   -0.45127E-02  4416   0.213E-01    0.610E-02
RMM:   2    -0.230363643561E+04   -0.26160E-03   -0.29387E-03  5806   0.380E-02    0.354E-02
RMM:   3    -0.230363643351E+04    0.21009E-05   -0.22894E-04  3343   0.137E-02    0.255E-02
RMM:   4    -0.230363642537E+04    0.81338E-05   -0.30763E-05  2834   0.463E-03
 181 F= -.23236330E+04 E0= -.23236330E+04  d E =-.337790E-03  mag=    -0.0000
       N       E                     dE             d eps       ncg     rms          rms(c)
DAV:   1    -0.230363649912E+04   -0.65615E-04   -0.31580E-02  4384   0.179E-01    0.509E-02
RMM:   2    -0.230363666450E+04   -0.16538E-03   -0.18583E-03  5736   0.322E-02    0.283E-02
RMM:   3    -0.230363666231E+04    0.21845E-05   -0.14479E-04  3194   0.122E-02    0.202E-02
RMM:   4    -0.230363665799E+04    0.43227E-05   -0.19942E-05  2822   0.422E-03
 182 F= -.23236331E+04 E0= -.23236331E+04  d E =-.180140E-03  mag=    -0.0000
       N       E                     dE             d eps       ncg     rms          rms(c)
DAV:   1    -0.230363658870E+04    0.73610E-04   -0.30295E-02  4384   0.175E-01    0.494E-02
RMM:   2    -0.230363674722E+04   -0.15851E-03   -0.17804E-03  5788   0.314E-02    0.280E-02
RMM:   3    -0.230363674505E+04    0.21633E-05   -0.13913E-04  3135   0.117E-02    0.198E-02
RMM:   4    -0.230363674082E+04    0.42311E-05   -0.19917E-05  2829   0.409E-03
 183 F= -.23236332E+04 E0= -.23236332E+04  d E =-.211537E-03  mag=    -0.0000
       N       E                     dE             d eps       ncg     rms          rms(c)
DAV:   1    -0.230363680023E+04   -0.55177E-04   -0.37737E-02  4384   0.196E-01    0.560E-02
RMM:   2    -0.230363698856E+04   -0.18834E-03   -0.20756E-03  5770   0.354E-02    0.332E-02
RMM:   3    -0.230363698172E+04    0.68486E-05   -0.16820E-04  3280   0.131E-02    0.228E-02
RMM:   4    -0.230363697418E+04    0.75389E-05   -0.20496E-05  2826   0.426E-03
 184 F= -.23236333E+04 E0= -.23236333E+04  d E =-.167591E-03  mag=     0.0000
       N       E                     dE             d eps       ncg     rms          rms(c)
DAV:   1    -0.230363693557E+04    0.46144E-04   -0.26328E-02  4384   0.164E-01    0.467E-02
RMM:   2    -0.230363706714E+04   -0.13157E-03   -0.14513E-03  5762   0.295E-02    0.277E-02
RMM:   3    -0.230363706249E+04    0.46569E-05   -0.11756E-04  3025   0.108E-02    0.191E-02
RMM:   4    -0.230363705733E+04    0.51597E-05   -0.14932E-05  2812   0.370E-03
 185 F= -.23236334E+04 E0= -.23236334E+04  d E =-.195549E-03  mag=     0.0000
       N       E                     dE             d eps       ncg     rms          rms(c)
DAV:   1    -0.230363708064E+04   -0.18149E-04   -0.52429E-02  4368   0.233E-01    0.705E-02
RMM:   2    -0.230363736936E+04   -0.28873E-03   -0.31676E-03  5793   0.440E-02    0.436E-02
RMM:   3    -0.230363735058E+04    0.18786E-04   -0.23997E-04  3459   0.149E-02    0.285E-02
RMM:   4    -0.230363733747E+04    0.13107E-04   -0.31313E-05  2856   0.505E-03    0.150E-02
RMM:   5    -0.230363733390E+04    0.35746E-05   -0.18048E-05  2828   0.469E-03
 186 F= -.23236336E+04 E0= -.23236336E+04  d E =-.204924E-03  mag=    -0.0000
       N       E                     dE             d eps       ncg     rms          rms(c)
DAV:   1    -0.230363731053E+04    0.26946E-04   -0.12647E-02  4576   0.115E-01    0.347E-02
RMM:   2    -0.230363738417E+04   -0.73649E-04   -0.79971E-04  5855   0.235E-02    0.209E-02
RMM:   3    -0.230363737939E+04    0.47877E-05   -0.56670E-05  2867   0.751E-03
 187 F= -.23236336E+04 E0= -.23236336E+04  d E =-.215149E-03  mag=    -0.0000
       N       E                     dE             d eps       ncg     rms          rms(c)
DAV:   1    -0.230363737170E+04    0.12475E-04   -0.42677E-02  4368   0.210E-01    0.662E-02
RMM:   2    -0.230363763551E+04   -0.26381E-03   -0.29124E-03  5839   0.413E-02    0.397E-02
RMM:   3    -0.230363761820E+04    0.17317E-04   -0.19741E-04  3166   0.120E-02    0.265E-02
RMM:   4    -0.230363760704E+04    0.11159E-04   -0.29625E-05  2836   0.480E-03    0.146E-02
RMM:   5    -0.230363760353E+04    0.35103E-05   -0.17426E-05  2828   0.456E-03
 188 F= -.23236337E+04 E0= -.23236337E+04  d E =-.146338E-03  mag=     0.0000
       N       E                     dE             d eps       ncg     rms          rms(c)
DAV:   1    -0.230363759049E+04    0.16550E-04   -0.89362E-03  4640   0.965E-02    0.301E-02
RMM:   2    -0.230363764790E+04   -0.57415E-04   -0.62101E-04  5748   0.204E-02    0.181E-02
RMM:   3    -0.230363764439E+04    0.35136E-05   -0.47152E-05  2846   0.661E-03
 189 F= -.23236337E+04 E0= -.23236337E+04  d E =-.151394E-03  mag=    -0.0000
       N       E                     dE             d eps       ncg     rms          rms(c)
DAV:   1    -0.230363768805E+04   -0.40149E-04   -0.41991E-02  4368   0.209E-01    0.655E-02
RMM:   2    -0.230363792510E+04   -0.23704E-03   -0.26389E-03  5815   0.407E-02    0.379E-02
RMM:   3    -0.230363791007E+04    0.15031E-04   -0.17334E-04  3173   0.118E-02    0.261E-02
RMM:   4    -0.230363789960E+04    0.10469E-04   -0.27316E-05  2838   0.490E-03    0.147E-02
RMM:   5    -0.230363789631E+04    0.32860E-05   -0.17283E-05  2827   0.463E-03
 190 F= -.23236339E+04 E0= -.23236339E+04  d E =-.153184E-03  mag=     0.0000
       N       E                     dE             d eps       ncg     rms          rms(c)
DAV:   1    -0.230363789980E+04   -0.20194E-06   -0.86949E-03  4384   0.956E-02    0.297E-02
RMM:   2    -0.230363795062E+04   -0.50826E-04   -0.55610E-04  5696   0.201E-02    0.169E-02
RMM:   3    -0.230363794789E+04    0.27344E-05   -0.41080E-05  2836   0.672E-03
 191 F= -.23236339E+04 E0= -.23236339E+04  d E =-.159559E-03  mag=     0.0000
       N       E                     dE             d eps       ncg     rms          rms(c)
DAV:   1    -0.230363803452E+04   -0.83894E-04   -0.41837E-02  4368   0.207E-01    0.641E-02
RMM:   2    -0.230363821120E+04   -0.17668E-03   -0.20284E-03  5726   0.384E-02    0.339E-02
RMM:   3    -0.230363819913E+04    0.12074E-04   -0.12509E-04  3175   0.112E-02    0.241E-02
RMM:   4    -0.230363819156E+04    0.75635E-05   -0.24691E-05  2846   0.505E-03
 192 F= -.23236341E+04 E0= -.23236341E+04  d E =-.160649E-03  mag=    -0.0000
       N       E                     dE             d eps       ncg     rms          rms(c)
DAV:   1    -0.230363819859E+04    0.53813E-06   -0.37033E-03  5136   0.619E-02    0.195E-02
RMM:   2    -0.230363821465E+04   -0.16059E-04   -0.18314E-04  4939   0.118E-02    0.114E-02
RMM:   3    -0.230363821400E+04    0.64676E-06   -0.15796E-05  2794   0.518E-03
 193 F= -.23236341E+04 E0= -.23236341E+04  d E =-.157643E-03  mag=     0.0000
       N       E                     dE             d eps       ncg     rms          rms(c)
DAV:   1    -0.230363830573E+04   -0.91081E-04   -0.43598E-02  4368   0.210E-01    0.634E-02
RMM:   2    -0.230363846569E+04   -0.15996E-03   -0.18486E-03  5699   0.379E-02    0.325E-02
RMM:   3    -0.230363845416E+04    0.11529E-04   -0.10733E-04  3195   0.108E-02    0.233E-02
RMM:   4    -0.230363844797E+04    0.61886E-05   -0.23731E-05  2844   0.504E-03
 194 F= -.23236342E+04 E0= -.23236342E+04  d E =-.161510E-03  mag=    -0.0000
       N       E                     dE             d eps       ncg     rms          rms(c)
DAV:   1    -0.230363845207E+04    0.20869E-05   -0.61332E-03  4624   0.788E-02    0.240E-02
RMM:   2    -0.230363847466E+04   -0.22595E-04   -0.26035E-04  5312   0.146E-02    0.130E-02
RMM:   3    -0.230363847396E+04    0.70153E-06   -0.21031E-05  2812   0.583E-03
 195 F= -.23236342E+04 E0= -.23236342E+04  d E =-.159719E-03  mag=    -0.0000
       N       E                     dE             d eps       ncg     rms          rms(c)
DAV:   1    -0.230363856662E+04   -0.91955E-04   -0.40361E-02  4368   0.201E-01    0.612E-02
RMM:   2    -0.230363873011E+04   -0.16349E-03   -0.18749E-03  5769   0.372E-02    0.328E-02
RMM:   3    -0.230363871936E+04    0.10748E-04   -0.10988E-04  3103   0.100E-02    0.242E-02
RMM:   4    -0.230363871185E+04    0.75115E-05   -0.22776E-05  2836   0.485E-03
 196 F= -.23236344E+04 E0= -.23236344E+04  d E =-.167360E-03  mag=     0.0000
       N       E                     dE             d eps       ncg     rms          rms(c)
DAV:   1    -0.230363871569E+04    0.36725E-05   -0.94504E-03  4480   0.972E-02    0.295E-02
RMM:   2    -0.230363875301E+04   -0.37318E-04   -0.42380E-04  5595   0.180E-02    0.164E-02
RMM:   3    -0.230363875162E+04    0.13865E-05   -0.35020E-05  2824   0.683E-03
 197 F= -.23236344E+04 E0= -.23236344E+04  d E =-.172427E-03  mag=     0.0000
       N       E                     dE             d eps       ncg     rms          rms(c)
DAV:   1    -0.230363881019E+04   -0.57184E-04   -0.51995E-02  4368   0.229E-01    0.730E-02
RMM:   2    -0.230363906776E+04   -0.25756E-03   -0.28945E-03  5828   0.441E-02    0.432E-02
RMM:   3    -0.230363904785E+04    0.19909E-04   -0.18065E-04  3251   0.118E-02    0.311E-02
RMM:   4    -0.230363903176E+04    0.16085E-04   -0.30885E-05  2853   0.533E-03    0.158E-02
RMM:   5    -0.230363902771E+04    0.40538E-05   -0.20242E-05  2828   0.500E-03
 198 F= -.23236346E+04 E0= -.23236346E+04  d E =-.178776E-03  mag=    -0.0000
       N       E                     dE             d eps       ncg     rms          rms(c)
DAV:   1    -0.230363903054E+04    0.12200E-05   -0.91695E-03  4512   0.965E-02    0.305E-02
RMM:   2    -0.230363907747E+04   -0.46926E-04   -0.51595E-04  5690   0.201E-02    0.180E-02
RMM:   3    -0.230363907424E+04    0.32318E-05   -0.38470E-05  2842   0.665E-03
 199 F= -.23236346E+04 E0= -.23236346E+04  d E =-.184214E-03  mag=    -0.0000
       N       E                     dE             d eps       ncg     rms          rms(c)
DAV:   1    -0.230363905698E+04    0.20489E-04   -0.51030E-02  4368   0.223E-01    0.727E-02
RMM:   2    -0.230363936875E+04   -0.31177E-03   -0.34177E-03  5876   0.450E-02    0.479E-02
RMM:   3    -0.230363934273E+04    0.26023E-04   -0.22672E-04  3257   0.127E-02    0.310E-02
RMM:   4    -0.230363932748E+04    0.15253E-04   -0.33887E-05  2870   0.506E-03    0.156E-02
RMM:   5    -0.230363932393E+04    0.35507E-05   -0.17762E-05  2830   0.468E-03
 200 F= -.23236347E+04 E0= -.23236347E+04  d E =-.165709E-03  mag=    -0.0000
       N       E                     dE             d eps       ncg     rms          rms(c)
DAV:   1    -0.230363931074E+04    0.16735E-04   -0.97441E-03  4416   0.978E-02    0.317E-02
RMM:   2    -0.230363937160E+04   -0.60853E-04   -0.65427E-04  5815   0.210E-02    0.205E-02
RMM:   3    -0.230363936684E+04    0.47597E-05   -0.49996E-05  2865   0.665E-03
 201 F= -.23236347E+04 E0= -.23236347E+04  d E =-.171789E-03  mag=    -0.0000
