       N       E                     dE             d eps       ncg     rms          rms(c)
DAV:   1     0.121065409908E+05    0.12107E+05   -0.81998E+05  4560   0.139E+03
DAV:   2    -0.122303071748E+04   -0.13330E+05   -0.12801E+05  5360   0.318E+02
DAV:   3    -0.248713615234E+04   -0.12641E+04   -0.12546E+04  5480   0.102E+02
DAV:   4    -0.251366382915E+04   -0.26528E+02   -0.26408E+02  5720   0.179E+01
DAV:   5    -0.251436773610E+04   -0.70391E+00   -0.70272E+00  5680   0.250E+00    0.170E+02
RMM:   6    -0.146358227291E+04    0.10508E+04   -0.18838E+03  4486   0.374E+01    0.722E+01
RMM:   7    -0.163725529134E+04   -0.17367E+03   -0.25664E+02  5017   0.132E+01    0.494E+01
RMM:   8    -0.169617848034E+04   -0.58923E+02   -0.47594E+01  5028   0.715E+00    0.381E+01
RMM:   9    -0.180679234836E+04   -0.11061E+03   -0.54751E+01  4718   0.725E+00    0.256E+01
RMM:  10    -0.196432224775E+04   -0.15753E+03   -0.62548E+01  4919   0.716E+00    0.170E+01
RMM:  11    -0.207581028090E+04   -0.11149E+03   -0.56162E+01  4663   0.562E+00    0.133E+01
RMM:  12    -0.222055692762E+04   -0.14475E+03   -0.12085E+02  4506   0.773E+00    0.791E+00
RMM:  13    -0.229162985182E+04   -0.71073E+02   -0.69475E+01  4703   0.574E+00    0.479E+00
RMM:  14    -0.230360031513E+04   -0.11970E+02   -0.15560E+01  4871   0.338E+00    0.661E+00
RMM:  15    -0.230503550801E+04   -0.14352E+01   -0.31510E+00  5667   0.106E+00    0.602E+00
RMM:  16    -0.230649716084E+04   -0.14617E+01   -0.10723E+00  4611   0.573E-01    0.438E+00
RMM:  17    -0.230976879106E+04   -0.32716E+01   -0.19570E+00  4490   0.860E-01    0.144E+00
RMM:  18    -0.231045565514E+04   -0.68686E+00   -0.34119E-01  4710   0.490E-01    0.844E-01
RMM:  19    -0.231060745827E+04   -0.15180E+00   -0.13847E-01  4723   0.209E-01    0.571E-01
RMM:  20    -0.231067853845E+04   -0.71080E-01   -0.27414E-02  4681   0.174E-01    0.494E-01
RMM:  21    -0.231076406448E+04   -0.85526E-01   -0.20518E-02  4507   0.936E-02    0.213E-01
RMM:  22    -0.231079757741E+04   -0.33513E-01   -0.63032E-03  4601   0.646E-02    0.157E-01
RMM:  23    -0.231082620433E+04   -0.28627E-01   -0.63210E-03  4529   0.514E-02    0.120E-01
RMM:  24    -0.231084421543E+04   -0.18011E-01   -0.49904E-03  4608   0.501E-02    0.688E-02
RMM:  25    -0.231085064093E+04   -0.64255E-02   -0.20242E-03  4916   0.330E-02    0.378E-02
RMM:  26    -0.231085415500E+04   -0.35141E-02   -0.91882E-04  4227   0.172E-02    0.213E-02
RMM:  27    -0.231085509044E+04   -0.93544E-03   -0.23916E-04  3952   0.126E-02    0.106E-02
RMM:  28    -0.231085540667E+04   -0.31623E-03   -0.96748E-05  3802   0.670E-03    0.511E-03
RMM:  29    -0.231085549286E+04   -0.86190E-04   -0.23125E-05  3192   0.514E-03    0.305E-03
RMM:  30    -0.231085553142E+04   -0.38562E-04   -0.11596E-05  2999   0.310E-03    0.217E-03
RMM:  31    -0.231085554433E+04   -0.12916E-04   -0.48207E-06  2876   0.257E-03    0.152E-03
RMM:  32    -0.231085554878E+04   -0.44448E-05   -0.29246E-06  2572   0.185E-03
   1 F= -.23309385E+04 E0= -.23309385E+04  d E =-.604145E-23  mag=     0.0001
       N       E                     dE             d eps       ncg     rms          rms(c)
DAV:   1    -0.231086126500E+04   -0.57207E-02   -0.21238E+00  4440   0.691E-01    0.354E-01
RMM:   2    -0.231085899067E+04    0.22743E-02   -0.13194E-02  3908   0.474E-02    0.186E-01
RMM:   3    -0.231085841410E+04    0.57656E-03   -0.34767E-03  4494   0.255E-02    0.989E-02
RMM:   4    -0.231085825500E+04    0.15910E-03   -0.67612E-04  4205   0.115E-02    0.438E-02
RMM:   5    -0.231085823213E+04    0.22872E-04   -0.86599E-05  3062   0.396E-03    0.129E-02
RMM:   6    -0.231085823136E+04    0.77186E-06   -0.13453E-05  2843   0.267E-03
   2 F= -.23309414E+04 E0= -.23309414E+04  d E =-.135633E-10  mag=     0.0000
       N       E                     dE             d eps       ncg     rms          rms(c)
DAV:   1    -0.231083931281E+04    0.18919E-01   -0.84181E+00  4560   0.140E+00    0.710E-01
RMM:   2    -0.231082924713E+04    0.10066E-01   -0.43373E-02  4150   0.911E-02    0.373E-01
RMM:   3    -0.231082736876E+04    0.18784E-02   -0.13730E-02  4980   0.532E-02    0.238E-01
RMM:   4    -0.231082640006E+04    0.96870E-03   -0.31607E-03  5000   0.229E-02    0.807E-02
RMM:   5    -0.231082633260E+04    0.67459E-04   -0.36635E-04  3587   0.695E-03    0.283E-02
RMM:   6    -0.231082632179E+04    0.10813E-04   -0.46265E-05  3176   0.407E-03    0.928E-03
RMM:   7    -0.231082632124E+04    0.55612E-06   -0.82037E-06  2894   0.292E-03
   3 F= -.23309092E+04 E0= -.23309092E+04  d E =-.574761E-19  mag=     0.0000
       N       E                     dE             d eps       ncg     rms          rms(c)
DAV:   1    -0.231085505320E+04   -0.28731E-01   -0.42781E+00  4400   0.103E+00    0.495E-01
RMM:   2    -0.231085071994E+04    0.43333E-02   -0.24203E-02  4035   0.679E-02    0.273E-01
RMM:   3    -0.231084972526E+04    0.99469E-03   -0.74340E-03  4818   0.339E-02    0.186E-01
RMM:   4    -0.231084906450E+04    0.66076E-03   -0.15789E-03  4595   0.189E-02    0.479E-02
RMM:   5    -0.231084904116E+04    0.23342E-04   -0.14073E-04  3184   0.452E-03    0.189E-02
RMM:   6    -0.231084903694E+04    0.42185E-05   -0.20661E-05  2929   0.320E-03
   4 F= -.23309321E+04 E0= -.23309321E+04  d E =-.199721E-18  mag=     0.0000
       N       E                     dE             d eps       ncg     rms          rms(c)
DAV:   1    -0.231082756197E+04    0.21479E-01   -0.86566E+00  4480   0.150E+00    0.631E-01
RMM:   2    -0.231082262108E+04    0.49409E-02   -0.38703E-02  4046   0.942E-02    0.365E-01
RMM:   3    -0.231082114657E+04    0.14745E-02   -0.16757E-02  4835   0.453E-02    0.194E-01
RMM:   4    -0.231082020128E+04    0.94529E-03   -0.18055E-03  4585   0.234E-02    0.485E-02
RMM:   5    -0.231082011012E+04    0.91156E-04   -0.23465E-04  3450   0.531E-03    0.251E-02
RMM:   6    -0.231082010192E+04    0.81988E-05   -0.64957E-05  3189   0.489E-03
   5 F= -.23309030E+04 E0= -.23309030E+04  d E =-.665658E-18  mag=     0.0000
       N       E                     dE             d eps       ncg     rms          rms(c)
DAV:   1    -0.231083545712E+04   -0.15347E-01   -0.42477E+00  4400   0.103E+00    0.448E-01
RMM:   2    -0.231083228357E+04    0.31736E-02   -0.21018E-02  3998   0.630E-02    0.266E-01
RMM:   3    -0.231083132998E+04    0.95358E-03   -0.62371E-03  5340   0.308E-02    0.208E-01
RMM:   4    -0.231083050391E+04    0.82607E-03   -0.15544E-03  4542   0.163E-02    0.299E-02
RMM:   5    -0.231083047233E+04    0.31578E-04   -0.12798E-04  3178   0.573E-03    0.166E-02
RMM:   6    -0.231083046987E+04    0.24620E-05   -0.23627E-05  2918   0.323E-03
   6 F= -.23309136E+04 E0= -.23309136E+04  d E =-.391243E-17  mag=     0.0000
       N       E                     dE             d eps       ncg     rms          rms(c)
DAV:   1    -0.231086243720E+04   -0.31965E-01   -0.81708E+00  4480   0.136E+00    0.564E-01
RMM:   2    -0.231085886451E+04    0.35727E-02   -0.45608E-02  4140   0.907E-02    0.335E-01
RMM:   3    -0.231085707814E+04    0.17864E-02   -0.92526E-03  5520   0.388E-02    0.254E-01
RMM:   4    -0.231085581236E+04    0.12658E-02   -0.28276E-03  4785   0.205E-02    0.463E-02
RMM:   5    -0.231085578096E+04    0.31397E-04   -0.27365E-04  3438   0.740E-03    0.219E-02
RMM:   6    -0.231085578225E+04   -0.12898E-05   -0.23055E-05  2976   0.324E-03
   7 F= -.23309386E+04 E0= -.23309386E+04  d E =-.156736E-17  mag=     0.0000
       N       E                     dE             d eps       ncg     rms          rms(c)
DAV:   1    -0.231086298697E+04   -0.72060E-02   -0.43561E+00  4400   0.961E-01    0.485E-01
RMM:   2    -0.231086326941E+04   -0.28244E-03   -0.41070E-02  4824   0.842E-02    0.396E-01
RMM:   3    -0.231086058872E+04    0.26807E-02   -0.50890E-03  5087   0.313E-02    0.196E-01
RMM:   4    -0.231086008336E+04    0.50536E-03   -0.24942E-03  4274   0.169E-02    0.352E-02
RMM:   5    -0.231086002934E+04    0.54016E-04   -0.19725E-04  3303   0.114E-02    0.180E-02
RMM:   6    -0.231086002738E+04    0.19660E-05   -0.33289E-05  3221   0.305E-03
   8 F= -.23309430E+04 E0= -.23309430E+04  d E =-.269942E-18  mag=     0.0000
       N       E                     dE             d eps       ncg     rms          rms(c)
DAV:   1    -0.231081602654E+04    0.44003E-01   -0.82034E+00  4480   0.124E+00    0.820E-01
RMM:   2    -0.231081863956E+04   -0.26130E-02   -0.78374E-02  5254   0.118E-01    0.683E-01
RMM:   3    -0.231081094807E+04    0.76915E-02   -0.11656E-02  5582   0.466E-02    0.331E-01
RMM:   4    -0.231081005471E+04    0.89336E-03   -0.40740E-03  4858   0.211E-02    0.633E-02
RMM:   5    -0.231080994991E+04    0.10481E-03   -0.25206E-04  3346   0.107E-02    0.262E-02
RMM:   6    -0.231080994173E+04    0.81777E-05   -0.79663E-05  3434   0.457E-03
   9 F= -.23308929E+04 E0= -.23308929E+04  d E =-.712711E-18  mag=     0.0000
       N       E                     dE             d eps       ncg     rms          rms(c)
DAV:   1    -0.231084903170E+04   -0.39082E-01   -0.41740E+00  4480   0.877E-01    0.568E-01
RMM:   2    -0.231085005119E+04   -0.10195E-02   -0.38453E-02  5007   0.788E-02    0.447E-01
RMM:   3    -0.231084708257E+04    0.29686E-02   -0.56516E-03  5341   0.311E-02    0.243E-01
RMM:   4    -0.231084657732E+04    0.50525E-03   -0.19898E-03  4570   0.154E-02    0.397E-02
RMM:   5    -0.231084652975E+04    0.47575E-04   -0.15656E-04  3219   0.860E-03    0.171E-02
RMM:   6    -0.231084652705E+04    0.27011E-05   -0.40611E-05  3147   0.323E-03
  10 F= -.23309293E+04 E0= -.23309293E+04  d E =-.536523E-17  mag=    -0.0000
       N       E                     dE             d eps       ncg     rms          rms(c)
DAV:   1    -0.231085476525E+04   -0.82355E-02   -0.79036E+00  4480   0.102E+00    0.658E-01
RMM:   2    -0.231085217712E+04    0.25881E-02   -0.34598E-02  4679   0.730E-02    0.362E-01
RMM:   3    -0.231085148982E+04    0.68730E-03   -0.75973E-03  5551   0.345E-02    0.310E-01
RMM:   4    -0.231085004495E+04    0.14449E-02   -0.19055E-03  4718   0.175E-02    0.626E-02
RMM:   5    -0.231085004797E+04   -0.30171E-05   -0.29581E-04  3282   0.635E-03    0.203E-02
RMM:   6    -0.231085004161E+04    0.63540E-05   -0.28902E-05  2994   0.415E-03
  11 F= -.23309332E+04 E0= -.23309332E+04  d E =-.150798E-18  mag=    -0.0000
       N       E                     dE             d eps       ncg     rms          rms(c)
DAV:   1    -0.231085096370E+04   -0.91574E-03   -0.40708E+00  4400   0.729E-01    0.482E-01
RMM:   2    -0.231085070742E+04    0.25628E-03   -0.27946E-02  4700   0.616E-02    0.273E-01
RMM:   3    -0.231084998372E+04    0.72371E-03   -0.37875E-03  4744   0.306E-02    0.206E-01
RMM:   4    -0.231084939918E+04    0.58453E-03   -0.12772E-03  4534   0.146E-02    0.574E-02
RMM:   5    -0.231084939249E+04    0.66877E-05   -0.15839E-04  3332   0.562E-03    0.160E-02
RMM:   6    -0.231084938929E+04    0.32004E-05   -0.21875E-05  3002   0.352E-03
  12 F= -.23309331E+04 E0= -.23309331E+04  d E =-.110006E-17  mag=    -0.0000
       N       E                     dE             d eps       ncg     rms          rms(c)
DAV:   1    -0.231085347809E+04   -0.40856E-02   -0.77860E+00  4480   0.104E+00    0.746E-01
RMM:   2    -0.231084973834E+04    0.37398E-02   -0.46185E-02  4737   0.855E-02    0.384E-01
RMM:   3    -0.231084930334E+04    0.43500E-03   -0.86138E-03  5054   0.523E-02    0.275E-01
RMM:   4    -0.231084827764E+04    0.10257E-02   -0.27016E-03  5023   0.212E-02    0.103E-01
RMM:   5    -0.231084819188E+04    0.85759E-04   -0.37342E-04  3768   0.790E-03    0.284E-02
RMM:   6    -0.231084817459E+04    0.17284E-04   -0.54761E-05  3272   0.523E-03    0.843E-03
RMM:   7    -0.231084817487E+04   -0.27929E-06   -0.94195E-06  2949   0.317E-03
  13 F= -.23309305E+04 E0= -.23309305E+04  d E =-.866087E-18  mag=    -0.0000
       N       E                     dE             d eps       ncg     rms          rms(c)
DAV:   1    -0.231085592887E+04   -0.77543E-02   -0.22738E+00  4560   0.594E-01    0.407E-01
RMM:   2    -0.231085534378E+04    0.58509E-03   -0.19283E-02  4516   0.507E-02    0.211E-01
RMM:   3    -0.231085510179E+04    0.24199E-03   -0.24806E-03  4492   0.284E-02    0.109E-01
RMM:   4    -0.231085503132E+04    0.70469E-04   -0.77413E-04  4240   0.111E-02    0.644E-02
RMM:   5    -0.231085498622E+04    0.45096E-04   -0.10723E-04  3257   0.551E-03    0.146E-02
RMM:   6    -0.231085498346E+04    0.27639E-05   -0.22252E-05  2979   0.336E-03
  14 F= -.23309378E+04 E0= -.23309378E+04  d E =-.142241E-16  mag=    -0.0000
       N       E                     dE             d eps       ncg     rms          rms(c)
DAV:   1    -0.231085072107E+04    0.42652E-02   -0.12303E+00  4560   0.494E-01    0.343E-01
RMM:   2    -0.231085065036E+04    0.70717E-04   -0.74368E-03  3796   0.357E-02    0.202E-01
RMM:   3    -0.231085066596E+04   -0.15603E-04   -0.16849E-03  4236   0.155E-02    0.744E-02
RMM:   4    -0.231085056833E+04    0.97629E-04   -0.26866E-04  3450   0.990E-03    0.316E-02
RMM:   5    -0.231085054731E+04    0.21022E-04   -0.55942E-05  3162   0.364E-03    0.726E-03
RMM:   6    -0.231085054741E+04   -0.10442E-06   -0.66707E-06  2638   0.234E-03
  15 F= -.23309337E+04 E0= -.23309337E+04  d E =-.105028E-18  mag=    -0.0000
       N       E                     dE             d eps       ncg     rms          rms(c)
DAV:   1    -0.231083329166E+04    0.17256E-01   -0.61395E-01  4760   0.339E-01    0.262E-01
RMM:   2    -0.231083293672E+04    0.35494E-03   -0.46338E-03  3704   0.276E-02    0.148E-01
RMM:   3    -0.231083286511E+04    0.71616E-04   -0.11243E-03  3996   0.137E-02    0.506E-02
RMM:   4    -0.231083284151E+04    0.23598E-04   -0.16028E-04  3365   0.621E-03    0.353E-02
RMM:   5    -0.231083281784E+04    0.23668E-04   -0.42262E-05  3039   0.342E-03    0.581E-03
RMM:   6    -0.231083281738E+04    0.45843E-06   -0.43360E-06  2494   0.199E-03
  16 F= -.23309163E+04 E0= -.23309163E+04  d E =-.226363E-18  mag=    -0.0000
       N       E                     dE             d eps       ncg     rms          rms(c)
DAV:   1    -0.231086075725E+04   -0.27939E-01   -0.12908E+00  5200   0.501E-01    0.539E-01
RMM:   2    -0.231085695936E+04    0.37979E-02   -0.20762E-02  4065   0.606E-02    0.295E-01
RMM:   3    -0.231085643373E+04    0.52562E-03   -0.63108E-03  4705   0.373E-02    0.158E-01
RMM:   4    -0.231085607973E+04    0.35401E-03   -0.10886E-03  4344   0.143E-02    0.710E-02
RMM:   5    -0.231085598188E+04    0.97845E-04   -0.43434E-04  3887   0.819E-03    0.200E-02
RMM:   6    -0.231085597078E+04    0.11102E-04   -0.32439E-05  2936   0.438E-03    0.584E-03
RMM:   7    -0.231085597068E+04    0.10070E-06   -0.11936E-05  2706   0.203E-03
  17 F= -.23309384E+04 E0= -.23309384E+04  d E =-.151778E-16  mag=    -0.0000
       N       E                     dE             d eps       ncg     rms          rms(c)
DAV:   1    -0.231085809036E+04   -0.21196E-02   -0.62435E-01  4880   0.354E-01    0.273E-01
RMM:   2    -0.231085783969E+04    0.25067E-03   -0.52650E-03  3782   0.284E-02    0.158E-01
RMM:   3    -0.231085774348E+04    0.96207E-04   -0.11664E-03  4346   0.138E-02    0.616E-02
RMM:   4    -0.231085769775E+04    0.45731E-04   -0.17788E-04  3285   0.667E-03    0.331E-02
RMM:   5    -0.231085767726E+04    0.20486E-04   -0.45420E-05  3201   0.355E-03    0.624E-03
RMM:   6    -0.231085767706E+04    0.19958E-06   -0.43054E-06  2553   0.213E-03
  18 F= -.23309404E+04 E0= -.23309404E+04  d E =-.254374E-18  mag=    -0.0000
       N       E                     dE             d eps       ncg     rms          rms(c)
DAV:   1    -0.231084797686E+04    0.97004E-02   -0.12132E+00  4880   0.495E-01    0.379E-01
RMM:   2    -0.231084748119E+04    0.49567E-03   -0.89207E-03  3770   0.367E-02    0.215E-01
RMM:   3    -0.231084725620E+04    0.22499E-03   -0.19685E-03  4637   0.190E-02    0.611E-02
RMM:   4    -0.231084723448E+04    0.21722E-04   -0.26338E-04  3381   0.761E-03    0.449E-02
RMM:   5    -0.231084719545E+04    0.39031E-04   -0.72080E-05  3226   0.424E-03    0.798E-03
RMM:   6    -0.231084719521E+04    0.23328E-06   -0.69932E-06  2625   0.232E-03
  19 F= -.23309304E+04 E0= -.23309304E+04  d E =-.822514E-19  mag=    -0.0000
       N       E                     dE             d eps       ncg     rms          rms(c)
DAV:   1    -0.231080471094E+04    0.42485E-01   -0.58605E-01  5080   0.348E-01    0.294E-01
RMM:   2    -0.231080422171E+04    0.48923E-03   -0.58007E-03  3655   0.307E-02    0.171E-01
RMM:   3    -0.231080396882E+04    0.25289E-03   -0.13199E-03  4246   0.140E-02    0.440E-02
RMM:   4    -0.231080393774E+04    0.31084E-04   -0.15289E-04  3105   0.757E-03    0.311E-02
RMM:   5    -0.231080391721E+04    0.20525E-04   -0.34024E-05  2910   0.320E-03    0.762E-03
RMM:   6    -0.231080391699E+04    0.21821E-06   -0.65575E-06  2435   0.199E-03
  20 F= -.23308873E+04 E0= -.23308873E+04  d E =-.142260E-18  mag=    -0.0000
       N       E                     dE             d eps       ncg     rms          rms(c)
DAV:   1    -0.231089254009E+04   -0.88623E-01   -0.11638E+00  4960   0.439E-01    0.499E-01
RMM:   2    -0.231088900568E+04    0.35344E-02   -0.19964E-02  3903   0.538E-02    0.267E-01
RMM:   3    -0.231088844495E+04    0.56073E-03   -0.51902E-03  4658   0.292E-02    0.127E-01
RMM:   4    -0.231088822977E+04    0.21518E-03   -0.77573E-04  4141   0.121E-02    0.731E-02
RMM:   5    -0.231088814038E+04    0.89397E-04   -0.33705E-04  3784   0.729E-03    0.180E-02
RMM:   6    -0.231088813287E+04    0.75106E-05   -0.19848E-05  2766   0.382E-03
  21 F= -.23309707E+04 E0= -.23309707E+04  d E =-.207810E-18  mag=    -0.0000
       N       E                     dE             d eps       ncg     rms          rms(c)
DAV:   1    -0.231085459237E+04    0.33548E-01   -0.57962E-01  4720   0.318E-01    0.278E-01
RMM:   2    -0.231085383148E+04    0.76088E-03   -0.56481E-03  3689   0.283E-02    0.151E-01
RMM:   3    -0.231085375638E+04    0.75104E-04   -0.12630E-03  4250   0.140E-02    0.727E-02
RMM:   4    -0.231085370150E+04    0.54877E-04   -0.21847E-04  3409   0.751E-03    0.408E-02
RMM:   5    -0.231085367732E+04    0.24179E-04   -0.74454E-05  3204   0.400E-03    0.779E-03
RMM:   6    -0.231085367600E+04    0.13184E-05   -0.66352E-06  2534   0.245E-03
  22 F= -.23309366E+04 E0= -.23309366E+04  d E =-.161977E-18  mag=    -0.0000
       N       E                     dE             d eps       ncg     rms          rms(c)
DAV:   1    -0.231085292847E+04    0.74885E-03   -0.11285E+00  4560   0.435E-01    0.259E-01
RMM:   2    -0.231085326077E+04   -0.33230E-03   -0.41969E-03  3646   0.275E-02    0.155E-01
RMM:   3    -0.231085335222E+04   -0.91449E-04   -0.61540E-04  3687   0.130E-02    0.199E-02
RMM:   4    -0.231085335618E+04   -0.39624E-05   -0.71317E-05  3023   0.523E-03
  23 F= -.23309364E+04 E0= -.23309364E+04  d E =-.143425E-18  mag=    -0.0000
       N       E                     dE             d eps       ncg     rms          rms(c)
DAV:   1    -0.231088455544E+04   -0.31203E-01   -0.56818E-01  4480   0.302E-01    0.195E-01
RMM:   2    -0.231088469543E+04   -0.13999E-03   -0.27057E-03  3517   0.205E-02    0.116E-01
RMM:   3    -0.231088471857E+04   -0.23136E-04   -0.42238E-04  3821   0.891E-03    0.336E-02
RMM:   4    -0.231088470435E+04    0.14220E-04   -0.59070E-05  2781   0.431E-03    0.186E-02
RMM:   5    -0.231088469862E+04    0.57335E-05   -0.15392E-05  2596   0.226E-03
  24 F= -.23309678E+04 E0= -.23309678E+04  d E =-.231813E-18  mag=    -0.0000
       N       E                     dE             d eps       ncg     rms          rms(c)
DAV:   1    -0.231082312321E+04    0.61581E-01   -0.11048E+00  4480   0.424E-01    0.289E-01
RMM:   2    -0.231082325767E+04   -0.13446E-03   -0.54219E-03  3685   0.275E-02    0.165E-01
RMM:   3    -0.231082326133E+04   -0.36601E-05   -0.75868E-04  4133   0.127E-02    0.394E-02
RMM:   4    -0.231082328210E+04   -0.20776E-04   -0.13974E-04  3055   0.527E-03    0.334E-02
RMM:   5    -0.231082326349E+04    0.18610E-04   -0.30214E-05  2728   0.326E-03    0.689E-03
RMM:   6    -0.231082326447E+04   -0.98096E-06   -0.93532E-06  2469   0.188E-03
  25 F= -.23309062E+04 E0= -.23309062E+04  d E =-.127776E-18  mag=    -0.0000
       N       E                     dE             d eps       ncg     rms          rms(c)
DAV:   1    -0.231084880298E+04   -0.25539E-01   -0.59562E-01  4320   0.352E-01    0.259E-01
RMM:   2    -0.231084851833E+04    0.28466E-03   -0.43372E-03  3672   0.271E-02    0.146E-01
RMM:   3    -0.231084852174E+04   -0.34160E-05   -0.10817E-03  4266   0.127E-02    0.793E-02
RMM:   4    -0.231084843010E+04    0.91641E-04   -0.19800E-04  3305   0.680E-03    0.305E-02
RMM:   5    -0.231084841702E+04    0.13085E-04   -0.68819E-05  3143   0.352E-03    0.699E-03
RMM:   6    -0.231084841635E+04    0.66278E-06   -0.49527E-06  2426   0.232E-03
  26 F= -.23309313E+04 E0= -.23309313E+04  d E =-.132339E-18  mag=    -0.0000
       N       E                     dE             d eps       ncg     rms          rms(c)
DAV:   1    -0.231085611765E+04   -0.77006E-02   -0.12457E+00  4400   0.500E-01    0.400E-01
RMM:   2    -0.231085517359E+04    0.94406E-03   -0.91516E-03  3819   0.392E-02    0.227E-01
RMM:   3    -0.231085524361E+04   -0.70022E-04   -0.25017E-03  4639   0.222E-02    0.138E-01
RMM:   4    -0.231085497874E+04    0.26488E-03   -0.62275E-04  3958   0.111E-02    0.441E-02
RMM:   5    -0.231085494903E+04    0.29709E-04   -0.15600E-04  3512   0.498E-03    0.109E-02
RMM:   6    -0.231085494679E+04    0.22341E-05   -0.10884E-05  2658   0.320E-03
  27 F= -.23309381E+04 E0= -.23309381E+04  d E =-.254103E-18  mag=    -0.0000
       N       E                     dE             d eps       ncg     rms          rms(c)
DAV:   1    -0.231083978535E+04    0.15164E-01   -0.65459E-01  4800   0.355E-01    0.391E-01
RMM:   2    -0.231083776127E+04    0.20241E-02   -0.11222E-02  3877   0.403E-02    0.211E-01
RMM:   3    -0.231083757686E+04    0.18441E-03   -0.30879E-03  4836   0.229E-02    0.143E-01
RMM:   4    -0.231083727821E+04    0.29864E-03   -0.58471E-04  3980   0.107E-02    0.504E-02
RMM:   5    -0.231083724343E+04    0.34780E-04   -0.21845E-04  3577   0.556E-03    0.145E-02
RMM:   6    -0.231083723784E+04    0.55928E-05   -0.19269E-05  2709   0.375E-03
  28 F= -.23309199E+04 E0= -.23309199E+04  d E =-.167374E-18  mag=    -0.0000
       N       E                     dE             d eps       ncg     rms          rms(c)
DAV:   1    -0.231086097718E+04   -0.23734E-01   -0.12751E+00  4880   0.501E-01    0.507E-01
RMM:   2    -0.231085783248E+04    0.31447E-02   -0.19794E-02  3929   0.526E-02    0.278E-01
RMM:   3    -0.231085753485E+04    0.29762E-03   -0.52606E-03  5100   0.297E-02    0.175E-01
RMM:   4    -0.231085709958E+04    0.43527E-03   -0.96390E-04  4265   0.132E-02    0.682E-02
RMM:   5    -0.231085703468E+04    0.64902E-04   -0.37593E-04  3749   0.715E-03    0.190E-02
RMM:   6    -0.231085702392E+04    0.10763E-04   -0.31327E-05  2918   0.479E-03    0.585E-03
RMM:   7    -0.231085702379E+04    0.13053E-06   -0.11208E-05  2707   0.183E-03
  29 F= -.23309403E+04 E0= -.23309403E+04  d E =-.194670E-18  mag=    -0.0000
       N       E                     dE             d eps       ncg     rms          rms(c)
DAV:   1    -0.231083729678E+04    0.19727E-01   -0.65376E-01  4880   0.368E-01    0.408E-01
RMM:   2    -0.231083502627E+04    0.22705E-02   -0.12653E-02  3798   0.432E-02    0.219E-01
RMM:   3    -0.231083478062E+04    0.24565E-03   -0.34361E-03  4485   0.217E-02    0.120E-01
RMM:   4    -0.231083457708E+04    0.20354E-03   -0.54300E-04  3873   0.114E-02    0.563E-02
RMM:   5    -0.231083452467E+04    0.52409E-04   -0.22057E-04  3549   0.572E-03    0.148E-02
RMM:   6    -0.231083451920E+04    0.54671E-05   -0.20803E-05  2649   0.386E-03
  30 F= -.23309172E+04 E0= -.23309172E+04  d E =-.248899E-18  mag=    -0.0000
       N       E                     dE             d eps       ncg     rms          rms(c)
DAV:   1    -0.231086674044E+04   -0.32216E-01   -0.12499E+00  4480   0.509E-01    0.447E-01
RMM:   2    -0.231086525696E+04    0.14835E-02   -0.13896E-02  3834   0.433E-02    0.249E-01
RMM:   3    -0.231086487788E+04    0.37908E-03   -0.33027E-03  4597   0.237E-02    0.829E-02
RMM:   4    -0.231086484252E+04    0.35363E-04   -0.45470E-04  3678   0.946E-03    0.633E-02
RMM:   5    -0.231086476581E+04    0.76707E-04   -0.13805E-04  3471   0.551E-03    0.119E-02
RMM:   6    -0.231086476476E+04    0.10487E-05   -0.85786E-06  2633   0.257E-03
  31 F= -.23309480E+04 E0= -.23309480E+04  d E =-.127279E-18  mag=    -0.0000
       N       E                     dE             d eps       ncg     rms          rms(c)
DAV:   1    -0.231084996931E+04    0.14797E-01   -0.63787E-01  4480   0.368E-01    0.371E-01
RMM:   2    -0.231084949661E+04    0.47270E-03   -0.10965E-02  4322   0.434E-02    0.275E-01
RMM:   3    -0.231084863545E+04    0.86116E-03   -0.24992E-03  4906   0.213E-02    0.175E-01
RMM:   4    -0.231084831442E+04    0.32102E-03   -0.74133E-04  3982   0.109E-02    0.343E-02
RMM:   5    -0.231084829264E+04    0.21786E-04   -0.63756E-05  3083   0.688E-03    0.106E-02
RMM:   6    -0.231084829254E+04    0.95315E-07   -0.23655E-05  2934   0.260E-03
  32 F= -.23309308E+04 E0= -.23309308E+04  d E =-.173698E-18  mag=    -0.0000
       N       E                     dE             d eps       ncg     rms          rms(c)
DAV:   1    -0.231085072550E+04   -0.24329E-02   -0.12665E+00  5040   0.460E-01    0.594E-01
RMM:   2    -0.231084866826E+04    0.20572E-02   -0.26493E-02  4794   0.610E-02    0.462E-01
RMM:   3    -0.231084563446E+04    0.30338E-02   -0.60872E-03  5486   0.323E-02    0.248E-01
RMM:   4    -0.231084488486E+04    0.74960E-03   -0.12441E-03  4101   0.134E-02    0.586E-02
RMM:   5    -0.231084486271E+04    0.22146E-04   -0.16898E-04  3248   0.943E-03    0.145E-02
RMM:   6    -0.231084486098E+04    0.17361E-05   -0.34257E-05  3071   0.335E-03
  33 F= -.23309283E+04 E0= -.23309283E+04  d E =-.179001E-18  mag=    -0.0000
       N       E                     dE             d eps       ncg     rms          rms(c)
DAV:   1    -0.231086230363E+04   -0.17441E-01   -0.65521E-01  5120   0.334E-01    0.439E-01
RMM:   2    -0.231086113892E+04    0.11647E-02   -0.14313E-02  4548   0.458E-02    0.345E-01
RMM:   3    -0.231085943009E+04    0.17088E-02   -0.33662E-03  5271   0.232E-02    0.183E-01
RMM:   4    -0.231085901016E+04    0.41993E-03   -0.76064E-04  3904   0.100E-02    0.425E-02
RMM:   5    -0.231085898948E+04    0.20687E-04   -0.89625E-05  3138   0.679E-03    0.107E-02
RMM:   6    -0.231085898815E+04    0.13223E-05   -0.17895E-05  2893   0.266E-03
  34 F= -.23309414E+04 E0= -.23309414E+04  d E =-.280619E-18  mag=    -0.0000
       N       E                     dE             d eps       ncg     rms          rms(c)
DAV:   1    -0.231084666353E+04    0.12326E-01   -0.12315E+00  4560   0.451E-01    0.460E-01
RMM:   2    -0.231084559284E+04    0.10707E-02   -0.11716E-02  4376   0.430E-02    0.310E-01
RMM:   3    -0.231084494969E+04    0.64316E-03   -0.33550E-03  5285   0.225E-02    0.223E-01
RMM:   4    -0.231084433809E+04    0.61159E-03   -0.92951E-04  4166   0.131E-02    0.352E-02
RMM:   5    -0.231084433236E+04    0.57352E-05   -0.10108E-04  3095   0.539E-03    0.130E-02
RMM:   6    -0.231084432995E+04    0.24044E-05   -0.11539E-05  2856   0.263E-03
  35 F= -.23309278E+04 E0= -.23309278E+04  d E =-.135377E-18  mag=    -0.0000
       N       E                     dE             d eps       ncg     rms          rms(c)
DAV:   1    -0.231085023136E+04   -0.58990E-02   -0.61500E-01  4480   0.325E-01    0.313E-01
RMM:   2    -0.231084952409E+04    0.70727E-03   -0.51718E-03  3919   0.289E-02    0.186E-01
RMM:   3    -0.231084947865E+04    0.45444E-04   -0.14027E-03  4508   0.145E-02    0.145E-01
RMM:   4    -0.231084917937E+04    0.29928E-03   -0.52604E-04  3886   0.103E-02    0.334E-02
RMM:   5    -0.231084916973E+04    0.96474E-05   -0.45454E-05  2985   0.376E-03
  36 F= -.23309321E+04 E0= -.23309321E+04  d E =-.672849E-18  mag=    -0.0000
       N       E                     dE             d eps       ncg     rms          rms(c)
DAV:   1    -0.231085830605E+04   -0.91267E-02   -0.11882E+00  4560   0.451E-01    0.386E-01
RMM:   2    -0.231085766140E+04    0.64465E-03   -0.72732E-03  4091   0.341E-02    0.218E-01
RMM:   3    -0.231085757018E+04    0.91220E-04   -0.17806E-03  4608   0.164E-02    0.110E-01
RMM:   4    -0.231085741161E+04    0.15857E-03   -0.49397E-04  3821   0.914E-03    0.415E-02
RMM:   5    -0.231085738731E+04    0.24299E-04   -0.58178E-05  3064   0.455E-03    0.101E-02
RMM:   6    -0.231085738647E+04    0.83497E-06   -0.13787E-05  2800   0.244E-03
  37 F= -.23309404E+04 E0= -.23309404E+04  d E =-.141613E-16  mag=    -0.0000
