       N       E                     dE             d eps       ncg     rms          rms(c)
DAV:   1     0.124891553097E+05    0.12489E+05   -0.81812E+05  4400   0.143E+03
DAV:   2    -0.107970004738E+04   -0.13569E+05   -0.13022E+05  5352   0.329E+02
DAV:   3    -0.246512558849E+04   -0.13854E+04   -0.13743E+04  5248   0.109E+02
DAV:   4    -0.250303892284E+04   -0.37913E+02   -0.37731E+02  6296   0.250E+01
DAV:   5    -0.250379575825E+04   -0.75684E+00   -0.75587E+00  5520   0.290E+00    0.170E+02
RMM:   6    -0.146537462254E+04    0.10384E+04   -0.19219E+03  4340   0.388E+01    0.721E+01
RMM:   7    -0.163111175991E+04   -0.16574E+03   -0.26145E+02  4774   0.135E+01    0.470E+01
RMM:   8    -0.169156853828E+04   -0.60457E+02   -0.28751E+01  4783   0.692E+00    0.336E+01
RMM:   9    -0.186026376033E+04   -0.16870E+03   -0.79958E+01  4456   0.911E+00    0.201E+01
RMM:  10    -0.200680979917E+04   -0.14655E+03   -0.68722E+01  4422   0.728E+00    0.148E+01
RMM:  11    -0.218126817618E+04   -0.17446E+03   -0.14723E+02  4328   0.861E+00    0.965E+00
RMM:  12    -0.227842581447E+04   -0.97158E+02   -0.10246E+02  4393   0.687E+00    0.484E+00
RMM:  13    -0.229337465717E+04   -0.14949E+02   -0.20750E+01  4616   0.448E+00    0.259E+00
RMM:  14    -0.229801628220E+04   -0.46416E+01   -0.70798E+00  4889   0.167E+00    0.176E+00
RMM:  15    -0.229868938429E+04   -0.67310E+00   -0.76859E-01  4868   0.965E-01    0.129E+00
RMM:  16    -0.229893560813E+04   -0.24622E+00   -0.17069E-01  4830   0.387E-01    0.581E-01
RMM:  17    -0.229913278036E+04   -0.19717E+00   -0.74193E-02  4463   0.265E-01    0.365E-01
RMM:  18    -0.229914779951E+04   -0.15019E-01   -0.25954E-02  4591   0.142E-01    0.204E-01
RMM:  19    -0.229916384485E+04   -0.16045E-01   -0.57960E-03  4410   0.860E-02    0.132E-01
RMM:  20    -0.229918176076E+04   -0.17916E-01   -0.57934E-03  4329   0.635E-02    0.953E-02
RMM:  21    -0.229919091418E+04   -0.91534E-02   -0.37442E-03  4341   0.599E-02    0.599E-02
RMM:  22    -0.229919779465E+04   -0.68805E-02   -0.28734E-03  4405   0.492E-02    0.484E-02
RMM:  23    -0.229920076162E+04   -0.29670E-02   -0.10612E-03  4557   0.314E-02    0.258E-02
RMM:  24    -0.229920276810E+04   -0.20065E-02   -0.69505E-04  3967   0.205E-02    0.146E-02
RMM:  25    -0.229920339845E+04   -0.63034E-03   -0.21653E-04  3770   0.158E-02    0.824E-03
RMM:  26    -0.229920363471E+04   -0.23627E-03   -0.83120E-05  3525   0.761E-03    0.570E-03
RMM:  27    -0.229920380159E+04   -0.16688E-03   -0.40971E-05  3292   0.681E-03    0.403E-03
RMM:  28    -0.229920384659E+04   -0.44999E-04   -0.13985E-05  2897   0.373E-03    0.301E-03
RMM:  29    -0.229920387763E+04   -0.31044E-04   -0.86490E-06  2794   0.318E-03    0.168E-03
RMM:  30    -0.229920388727E+04   -0.96346E-05   -0.58877E-06  2628   0.267E-03
   1 F= -.23191249E+04 E0= -.23191249E+04  d E =-.231912E+04  mag=     3.0001
