       N       E                     dE             d eps       ncg     rms          rms(c)
DAV:   1     0.126711839150E+05    0.12671E+05   -0.82623E+05  4440   0.143E+03
DAV:   2    -0.107105455847E+04   -0.13742E+05   -0.13170E+05  5312   0.329E+02
DAV:   3    -0.246566813039E+04   -0.13946E+04   -0.13818E+04  5352   0.110E+02
DAV:   4    -0.251009454133E+04   -0.44426E+02   -0.44211E+02  6656   0.292E+01
DAV:   5    -0.251093374234E+04   -0.83920E+00   -0.83775E+00  5552   0.325E+00    0.170E+02
RMM:   6    -0.146842119310E+04    0.10425E+04   -0.19354E+03  4380   0.386E+01    0.722E+01
RMM:   7    -0.164182922398E+04   -0.17341E+03   -0.28062E+02  4953   0.140E+01    0.470E+01
RMM:   8    -0.170106749998E+04   -0.59238E+02   -0.30731E+01  5137   0.647E+00    0.334E+01
RMM:   9    -0.186819373779E+04   -0.16713E+03   -0.81644E+01  4700   0.894E+00    0.241E+01
RMM:  10    -0.196735787126E+04   -0.99164E+02   -0.40777E+01  4835   0.599E+00    0.230E+01
RMM:  11    -0.204416211862E+04   -0.76804E+02   -0.30139E+01  4833   0.446E+00    0.154E+01
RMM:  12    -0.216441409845E+04   -0.12025E+03   -0.75561E+01  4408   0.663E+00    0.101E+01
RMM:  13    -0.227028676498E+04   -0.10587E+03   -0.96763E+01  4483   0.695E+00    0.581E+00
RMM:  14    -0.229425441615E+04   -0.23968E+02   -0.25322E+01  4499   0.449E+00    0.795E+00
RMM:  15    -0.229583025199E+04   -0.15758E+01   -0.54552E+00  5398   0.143E+00    0.703E+00
RMM:  16    -0.229664465851E+04   -0.81441E+00   -0.52251E-01  4795   0.558E-01    0.608E+00
RMM:  17    -0.230239310883E+04   -0.57485E+01   -0.42137E+00  4374   0.133E+00    0.437E+00
RMM:  18    -0.230380765929E+04   -0.14146E+01   -0.85689E-01  4576   0.604E-01    0.427E+00
RMM:  19    -0.230497872246E+04   -0.11711E+01   -0.68779E-01  4480   0.444E-01    0.302E+00
RMM:  20    -0.230643602979E+04   -0.14573E+01   -0.12264E+00  4459   0.568E-01    0.162E+00
RMM:  21    -0.230692790156E+04   -0.49187E+00   -0.62082E-01  4608   0.429E-01    0.102E+00
RMM:  22    -0.230714957897E+04   -0.22168E+00   -0.19430E-01  4757   0.247E-01    0.665E-01
RMM:  23    -0.230739113974E+04   -0.24156E+00   -0.11760E-01  4415   0.196E-01    0.423E-01
RMM:  24    -0.230749303094E+04   -0.10189E+00   -0.34043E-02  4633   0.128E-01    0.277E-01
RMM:  25    -0.230758417275E+04   -0.91142E-01   -0.21364E-02  4439   0.900E-02    0.179E-01
RMM:  26    -0.230761963647E+04   -0.35464E-01   -0.79361E-03  4621   0.753E-02    0.134E-01
RMM:  27    -0.230763813644E+04   -0.18500E-01   -0.39399E-03  4598   0.419E-02    0.708E-02
RMM:  28    -0.230764675249E+04   -0.86161E-02   -0.15875E-03  4526   0.345E-02    0.479E-02
RMM:  29    -0.230765115078E+04   -0.43983E-02   -0.10179E-03  4189   0.208E-02    0.303E-02
RMM:  30    -0.230765245682E+04   -0.13060E-02   -0.33620E-04  4117   0.172E-02    0.132E-02
RMM:  31    -0.230765297429E+04   -0.51748E-03   -0.16991E-04  3764   0.879E-03    0.802E-03
RMM:  32    -0.230765309141E+04   -0.11711E-03   -0.33751E-05  3184   0.715E-03    0.474E-03
RMM:  33    -0.230765315602E+04   -0.64618E-04   -0.18619E-05  2977   0.343E-03    0.252E-03
RMM:  34    -0.230765317752E+04   -0.21491E-04   -0.54614E-06  2800   0.308E-03    0.151E-03
RMM:  35    -0.230765318864E+04   -0.11126E-04   -0.33637E-06  2435   0.190E-03    0.925E-04
RMM:  36    -0.230765319521E+04   -0.65698E-05   -0.20300E-06  2443   0.177E-03
   1 F= -.23281190E+04 E0= -.23281190E+04  d E =-.232812E+04  mag=     2.0001
       N       E                     dE             d eps       ncg     rms          rms(c)
DAV:   1    -0.230785073832E+04   -0.19755E+00   -0.17276E+01  4856   0.305E+00    0.128E+00
RMM:   2    -0.230800649896E+04   -0.15576E+00   -0.17531E+00  6151   0.642E-01    0.115E+00
RMM:   3    -0.230801163411E+04   -0.51351E-02   -0.18201E-01  5827   0.254E-01    0.988E-01
RMM:   4    -0.230800090198E+04    0.10732E-01   -0.18000E-02  5744   0.673E-02    0.363E-01
RMM:   5    -0.230799838777E+04    0.25142E-02   -0.99448E-03  4937   0.545E-02    0.132E-01
RMM:   6    -0.230799825755E+04    0.13023E-03   -0.12200E-03  4706   0.322E-02    0.628E-02
RMM:   7    -0.230799819638E+04    0.61171E-04   -0.30661E-04  4308   0.116E-02    0.339E-02
RMM:   8    -0.230799816840E+04    0.27972E-04   -0.75935E-05  3512   0.948E-03    0.127E-02
RMM:   9    -0.230799816279E+04    0.56170E-05   -0.28359E-05  3046   0.514E-03
   2 F= -.23284636E+04 E0= -.23284636E+04  d E =-.344568E+00  mag=     2.0000
       N       E                     dE             d eps       ncg     rms          rms(c)
DAV:   1    -0.230788946773E+04    0.10870E+00   -0.32334E+01  4552   0.425E+00    0.161E+00
RMM:   2    -0.230819508708E+04   -0.30562E+00   -0.32024E+00  6200   0.906E-01    0.181E+00
RMM:   3    -0.230820180612E+04   -0.67190E-02   -0.36089E-01  5948   0.361E-01    0.133E+00
RMM:   4    -0.230818242903E+04    0.19377E-01   -0.32798E-02  5840   0.890E-02    0.495E-01
RMM:   5    -0.230817796056E+04    0.44685E-02   -0.20059E-02  5067   0.771E-02    0.200E-01
RMM:   6    -0.230817771710E+04    0.24346E-03   -0.24325E-03  4908   0.444E-02    0.855E-02
RMM:   7    -0.230817757101E+04    0.14609E-03   -0.55720E-04  4577   0.152E-02    0.456E-02
RMM:   8    -0.230817752238E+04    0.48630E-04   -0.14365E-04  3986   0.118E-02    0.189E-02
RMM:   9    -0.230817751192E+04    0.10468E-04   -0.44284E-05  3317   0.607E-03    0.974E-03
RMM:  10    -0.230817751007E+04    0.18415E-05   -0.13866E-05  2846   0.487E-03
   3 F= -.23286427E+04 E0= -.23286427E+04  d E =-.523680E+00  mag=     2.0003
       N       E                     dE             d eps       ncg     rms          rms(c)
DAV:   1    -0.230822928552E+04   -0.51774E-01   -0.26635E+01  4496   0.483E+00    0.184E+00
RMM:   2    -0.230840078891E+04   -0.17150E+00   -0.17495E+00  5880   0.948E-01    0.169E+00
RMM:   3    -0.230839370195E+04    0.70870E-02   -0.16081E-01  5700   0.334E-01    0.147E+00
RMM:   4    -0.230836897876E+04    0.24723E-01   -0.24526E-02  5549   0.102E-01    0.335E-01
RMM:   5    -0.230836656963E+04    0.24091E-02   -0.98947E-03  4989   0.717E-02    0.140E-01
RMM:   6    -0.230836639109E+04    0.17853E-03   -0.15038E-03  5280   0.363E-02    0.619E-02
RMM:   7    -0.230836632726E+04    0.63831E-04   -0.24211E-04  4277   0.135E-02    0.282E-02
RMM:   8    -0.230836629370E+04    0.33559E-04   -0.99483E-05  4044   0.908E-03    0.122E-02
RMM:   9    -0.230836629004E+04    0.36651E-05   -0.22132E-05  2997   0.581E-03
   4 F= -.23288299E+04 E0= -.23288299E+04  d E =-.187231E+00  mag=     2.0001
       N       E                     dE             d eps       ncg     rms          rms(c)
DAV:   1    -0.230836573446E+04    0.55924E-03   -0.21241E+00  4896   0.138E+00    0.530E-01
RMM:   2    -0.230837933035E+04   -0.13596E-01   -0.13907E-01  5875   0.273E-01    0.485E-01
RMM:   3    -0.230837873158E+04    0.59877E-03   -0.12963E-02  5658   0.959E-02    0.425E-01
RMM:   4    -0.230837672097E+04    0.20106E-02   -0.19669E-03  5242   0.292E-02    0.944E-02
RMM:   5    -0.230837651579E+04    0.20518E-03   -0.81312E-04  4903   0.213E-02    0.385E-02
RMM:   6    -0.230837650466E+04    0.11133E-04   -0.11894E-04  4263   0.107E-02    0.176E-02
RMM:   7    -0.230837650072E+04    0.39449E-05   -0.21497E-05  2965   0.562E-03
   5 F= -.23288397E+04 E0= -.23288397E+04  d E =-.196981E+00  mag=     2.0000
       N       E                     dE             d eps       ncg     rms          rms(c)
DAV:   1    -0.230814093509E+04    0.23557E+00   -0.17672E+01  4520   0.359E+00    0.138E+00
RMM:   2    -0.230847303869E+04   -0.33210E+00   -0.35877E+00  6153   0.895E-01    0.733E-01
RMM:   3    -0.230850651436E+04   -0.33476E-01   -0.43190E-01  5813   0.316E-01    0.816E-01
RMM:   4    -0.230850361902E+04    0.28953E-02   -0.39331E-02  6041   0.693E-02    0.444E-01
RMM:   5    -0.230850096505E+04    0.26540E-02   -0.51877E-03  5113   0.360E-02    0.203E-01
RMM:   6    -0.230850041452E+04    0.55053E-03   -0.18487E-03  5188   0.285E-02    0.665E-02
RMM:   7    -0.230850038943E+04    0.25094E-04   -0.31878E-04  4937   0.140E-02    0.338E-02
RMM:   8    -0.230850037086E+04    0.18573E-04   -0.49126E-05  3196   0.669E-03    0.180E-02
RMM:   9    -0.230850036646E+04    0.43927E-05   -0.24254E-05  2973   0.491E-03
   6 F= -.23289598E+04 E0= -.23289598E+04  d E =-.120119E+00  mag=     2.0000
       N       E                     dE             d eps       ncg     rms          rms(c)
DAV:   1    -0.230845238752E+04    0.47983E-01   -0.30026E+00  4560   0.149E+00    0.569E-01
RMM:   2    -0.230851090557E+04   -0.58518E-01   -0.63268E-01  6166   0.377E-01    0.319E-01
RMM:   3    -0.230851531627E+04   -0.44107E-02   -0.58616E-02  5804   0.110E-01    0.393E-01
RMM:   4    -0.230851429934E+04    0.10169E-02   -0.61737E-03  5300   0.285E-02    0.161E-01
RMM:   5    -0.230851383306E+04    0.46628E-03   -0.10220E-03  4962   0.175E-02    0.746E-02
RMM:   6    -0.230851380034E+04    0.32716E-04   -0.31439E-04  4406   0.128E-02    0.226E-02
RMM:   7    -0.230851379492E+04    0.54254E-05   -0.48363E-05  3167   0.665E-03
   7 F= -.23289716E+04 E0= -.23289716E+04  d E =-.131927E+00  mag=     2.0000
       N       E                     dE             d eps       ncg     rms          rms(c)
DAV:   1    -0.230848681709E+04    0.26983E-01   -0.45529E+00  4448   0.207E+00    0.762E-01
RMM:   2    -0.230855435677E+04   -0.67540E-01   -0.72607E-01  5985   0.462E-01    0.356E-01
RMM:   3    -0.230855896068E+04   -0.46039E-02   -0.66811E-02  5632   0.143E-01    0.300E-01
RMM:   4    -0.230855859474E+04    0.36594E-03   -0.73048E-03  5669   0.369E-02    0.221E-01
RMM:   5    -0.230855807213E+04    0.52261E-03   -0.16231E-03  5024   0.277E-02    0.845E-02
RMM:   6    -0.230855804804E+04    0.24088E-04   -0.37604E-04  4627   0.144E-02    0.328E-02
RMM:   7    -0.230855804109E+04    0.69482E-05   -0.46984E-05  3137   0.759E-03
   8 F= -.23290149E+04 E0= -.23290149E+04  d E =-.433565E-01  mag=     2.0000
       N       E                     dE             d eps       ncg     rms          rms(c)
DAV:   1    -0.230841919161E+04    0.13886E+00   -0.10506E+01  4400   0.315E+00    0.116E+00
RMM:   2    -0.230857601047E+04   -0.15682E+00   -0.16853E+00  5952   0.699E-01    0.549E-01
RMM:   3    -0.230858668104E+04   -0.10671E-01   -0.15224E-01  5678   0.218E-01    0.482E-01
RMM:   4    -0.230858559209E+04    0.10890E-02   -0.16751E-02  5864   0.563E-02    0.335E-01
RMM:   5    -0.230858437591E+04    0.12162E-02   -0.33434E-03  5137   0.399E-02    0.123E-01
RMM:   6    -0.230858431991E+04    0.56002E-04   -0.96017E-04  4945   0.224E-02    0.462E-02
RMM:   7    -0.230858430700E+04    0.12914E-04   -0.11654E-04  3700   0.116E-02    0.215E-02
RMM:   8    -0.230858430261E+04    0.43903E-05   -0.32988E-05  3021   0.549E-03
   9 F= -.23290398E+04 E0= -.23290398E+04  d E =-.682505E-01  mag=     2.0000
       N       E                     dE             d eps       ncg     rms          rms(c)
DAV:   1    -0.230858447255E+04   -0.16556E-03   -0.15952E+00  4528   0.117E+00    0.403E-01
RMM:   2    -0.230860834741E+04   -0.23875E-01   -0.25315E-01  5966   0.253E-01    0.250E-01
RMM:   3    -0.230861012310E+04   -0.17757E-02   -0.23660E-02  5703   0.781E-02    0.239E-01
RMM:   4    -0.230860958527E+04    0.53783E-03   -0.24984E-03  4948   0.202E-02    0.103E-01
RMM:   5    -0.230860941090E+04    0.17437E-03   -0.48903E-04  4488   0.136E-02    0.428E-02
RMM:   6    -0.230860940310E+04    0.77994E-05   -0.17521E-04  4058   0.959E-03    0.167E-02
RMM:   7    -0.230860940035E+04    0.27515E-05   -0.18571E-05  2873   0.500E-03
  10 F= -.23290645E+04 E0= -.23290645E+04  d E =-.246315E-01  mag=     2.0000
       N       E                     dE             d eps       ncg     rms          rms(c)
DAV:   1    -0.230843822204E+04    0.17118E+00   -0.14356E+01  4400   0.353E+00    0.119E+00
RMM:   2    -0.230865230638E+04   -0.21408E+00   -0.22800E+00  5945   0.747E-01    0.686E-01
RMM:   3    -0.230866973068E+04   -0.17424E-01   -0.21304E-01  5777   0.233E-01    0.761E-01
RMM:   4    -0.230866448233E+04    0.52484E-02   -0.22434E-02  5861   0.603E-02    0.315E-01
RMM:   5    -0.230866314509E+04    0.13372E-02   -0.34650E-03  5285   0.343E-02    0.152E-01
RMM:   6    -0.230866288941E+04    0.25568E-03   -0.19273E-03  5048   0.271E-02    0.439E-02
RMM:   7    -0.230866285119E+04    0.38221E-04   -0.19670E-04  4427   0.144E-02    0.290E-02
RMM:   8    -0.230866283733E+04    0.13858E-04   -0.49875E-05  3296   0.515E-03    0.121E-02
RMM:   9    -0.230866283584E+04    0.14951E-05   -0.17303E-05  2872   0.413E-03
  11 F= -.23291165E+04 E0= -.23291165E+04  d E =-.767165E-01  mag=     2.0000
       N       E                     dE             d eps       ncg     rms          rms(c)
DAV:   1    -0.230773205576E+04    0.93078E+00   -0.57190E+01  4392   0.708E+00    0.240E+00
RMM:   2    -0.230863208736E+04   -0.90003E+00   -0.96303E+00  5943   0.149E+00    0.116E+00
RMM:   3    -0.230869622295E+04   -0.64136E-01   -0.84163E-01  5680   0.472E-01    0.136E+00
RMM:   4    -0.230868317074E+04    0.13052E-01   -0.90803E-02  6047   0.115E-01    0.721E-01
RMM:   5    -0.230867799415E+04    0.51766E-02   -0.13154E-02  5502   0.620E-02    0.377E-01
RMM:   6    -0.230867598185E+04    0.20123E-02   -0.10926E-02  4939   0.553E-02    0.151E-01
RMM:   7    -0.230867570085E+04    0.28100E-03   -0.14979E-03  4925   0.376E-02    0.849E-02
RMM:   8    -0.230867564535E+04    0.55505E-04   -0.30006E-04  4611   0.106E-02    0.356E-02
RMM:   9    -0.230867563329E+04    0.12054E-04   -0.91547E-05  3625   0.924E-03    0.182E-02
RMM:  10    -0.230867563776E+04   -0.44708E-05   -0.39008E-05  3294   0.511E-03
  12 F= -.23291269E+04 E0= -.23291269E+04  d E =-.870570E-01  mag=     2.0000
       N       E                     dE             d eps       ncg     rms          rms(c)
DAV:   1    -0.230853271729E+04    0.14292E+00   -0.97719E+00  4432   0.288E+00    0.102E+00
RMM:   2    -0.230868466307E+04   -0.15195E+00   -0.15861E+00  5971   0.636E-01    0.869E-01
RMM:   3    -0.230869056881E+04   -0.59057E-02   -0.15014E-01  5856   0.195E-01    0.653E-01
RMM:   4    -0.230868659592E+04    0.39729E-02   -0.15976E-02  5639   0.506E-02    0.253E-01
RMM:   5    -0.230868552294E+04    0.10730E-02   -0.31764E-03  5141   0.325E-02    0.120E-01
RMM:   6    -0.230868544235E+04    0.80596E-04   -0.10929E-03  4978   0.204E-02    0.689E-02
RMM:   7    -0.230868541164E+04    0.30709E-04   -0.19898E-04  3994   0.115E-02    0.273E-02
RMM:   8    -0.230868539417E+04    0.17472E-04   -0.50338E-05  3008   0.594E-03    0.101E-02
RMM:   9    -0.230868539232E+04    0.18493E-05   -0.17179E-05  2855   0.398E-03
  13 F= -.23291376E+04 E0= -.23291376E+04  d E =-.977854E-01  mag=     2.0000
       N       E                     dE             d eps       ncg     rms          rms(c)
DAV:   1    -0.230863123027E+04    0.54164E-01   -0.72527E+00  4400   0.258E+00    0.822E-01
RMM:   2    -0.230872433959E+04   -0.93109E-01   -0.96673E-01  5933   0.532E-01    0.631E-01
RMM:   3    -0.230873021130E+04   -0.58717E-02   -0.84956E-02  5785   0.162E-01    0.611E-01
RMM:   4    -0.230872648166E+04    0.37296E-02   -0.10049E-02  5587   0.459E-02    0.201E-01
RMM:   5    -0.230872576921E+04    0.71246E-03   -0.20994E-03  5055   0.308E-02    0.821E-02
RMM:   6    -0.230872572628E+04    0.42923E-04   -0.52804E-04  4666   0.201E-02    0.278E-02
RMM:   7    -0.230872571393E+04    0.12353E-04   -0.75158E-05  3470   0.744E-03    0.167E-02
RMM:   8    -0.230872570886E+04    0.50729E-05   -0.24927E-05  2921   0.549E-03
  14 F= -.23291767E+04 E0= -.23291767E+04  d E =-.390433E-01  mag=     2.0000
       N       E                     dE             d eps       ncg     rms          rms(c)
DAV:   1    -0.230859954300E+04    0.12617E+00   -0.11080E+01  4400   0.320E+00    0.101E+00
RMM:   2    -0.230874224610E+04   -0.14270E+00   -0.14818E+00  5912   0.659E-01    0.779E-01
RMM:   3    -0.230875155043E+04   -0.93043E-02   -0.13107E-01  5749   0.201E-01    0.771E-01
RMM:   4    -0.230874565516E+04    0.58953E-02   -0.15414E-02  5616   0.571E-02    0.249E-01
RMM:   5    -0.230874458952E+04    0.10656E-02   -0.31442E-03  5101   0.377E-02    0.107E-01
RMM:   6    -0.230874451135E+04    0.78176E-04   -0.81112E-04  4797   0.246E-02    0.348E-02
RMM:   7    -0.230874449320E+04    0.18146E-04   -0.12473E-04  3747   0.922E-03    0.219E-02
RMM:   8    -0.230874448717E+04    0.60279E-05   -0.35383E-05  3078   0.653E-03
  15 F= -.23291939E+04 E0= -.23291939E+04  d E =-.563237E-01  mag=     2.0000
       N       E                     dE             d eps       ncg     rms          rms(c)
DAV:   1    -0.230872715935E+04    0.17334E-01   -0.31241E+00  4528   0.176E+00    0.574E-01
RMM:   2    -0.230876758281E+04   -0.40423E-01   -0.42345E-01  6030   0.371E-01    0.372E-01
RMM:   3    -0.230877012536E+04   -0.25426E-02   -0.39421E-02  5784   0.112E-01    0.354E-01
RMM:   4    -0.230876891237E+04    0.12130E-02   -0.43143E-03  5585   0.301E-02    0.130E-01
RMM:   5    -0.230876865814E+04    0.25423E-03   -0.84740E-04  4959   0.201E-02    0.515E-02
RMM:   6    -0.230876865596E+04    0.21810E-05   -0.24446E-04  4579   0.121E-02    0.314E-02
RMM:   7    -0.230876864696E+04    0.89948E-05   -0.30669E-05  2956   0.618E-03
  16 F= -.23292175E+04 E0= -.23292175E+04  d E =-.235183E-01  mag=     2.0000
       N       E                     dE             d eps       ncg     rms          rms(c)
DAV:   1    -0.230867711814E+04    0.91538E-01   -0.81281E+00  4464   0.284E+00    0.933E-01
RMM:   2    -0.230878315070E+04   -0.10603E+00   -0.11094E+00  6050   0.602E-01    0.616E-01
RMM:   3    -0.230878917592E+04   -0.60252E-02   -0.10516E-01  5816   0.178E-01    0.550E-01
RMM:   4    -0.230878622664E+04    0.29493E-02   -0.11087E-02  5726   0.482E-02    0.206E-01
RMM:   5    -0.230878558597E+04    0.64067E-03   -0.22178E-03  5189   0.316E-02    0.841E-02
RMM:   6    -0.230878555618E+04    0.29792E-04   -0.55470E-04  4952   0.184E-02    0.532E-02
RMM:   7    -0.230878552623E+04    0.29953E-04   -0.82506E-05  3499   0.880E-03    0.186E-02
RMM:   8    -0.230878551488E+04    0.11351E-04   -0.24750E-05  2868   0.533E-03    0.844E-03
RMM:   9    -0.230878551351E+04    0.13624E-05   -0.10399E-05  2838   0.338E-03
  17 F= -.23292334E+04 E0= -.23292334E+04  d E =-.394104E-01  mag=     2.0000
       N       E                     dE             d eps       ncg     rms          rms(c)
DAV:   1    -0.230876999812E+04    0.15517E-01   -0.31559E+00  4440   0.179E+00    0.553E-01
RMM:   2    -0.230880674936E+04   -0.36751E-01   -0.38961E-01  6015   0.369E-01    0.306E-01
RMM:   3    -0.230880912900E+04   -0.23796E-02   -0.34773E-02  5797   0.104E-01    0.276E-01
RMM:   4    -0.230880851168E+04    0.61732E-03   -0.38962E-03  5604   0.290E-02    0.144E-01
RMM:   5    -0.230880826268E+04    0.24900E-03   -0.88469E-04  4862   0.205E-02    0.591E-02
RMM:   6    -0.230880824469E+04    0.17988E-04   -0.24721E-04  4671   0.118E-02    0.362E-02
RMM:   7    -0.230880823046E+04    0.14227E-04   -0.36241E-05  2983   0.649E-03    0.120E-02
RMM:   8    -0.230880822754E+04    0.29209E-05   -0.11030E-05  2830   0.354E-03
  18 F= -.23292557E+04 E0= -.23292557E+04  d E =-.223764E-01  mag=     2.0000
       N       E                     dE             d eps       ncg     rms          rms(c)
DAV:   1    -0.230871961084E+04    0.88620E-01   -0.85086E+00  4400   0.295E+00    0.911E-01
RMM:   2    -0.230881943252E+04   -0.99822E-01   -0.10559E+00  5991   0.606E-01    0.525E-01
RMM:   3    -0.230882560737E+04   -0.61748E-02   -0.96020E-02  5801   0.171E-01    0.463E-01
RMM:   4    -0.230882375103E+04    0.18563E-02   -0.10309E-02  5685   0.479E-02    0.230E-01
RMM:   5    -0.230882310573E+04    0.64529E-03   -0.23267E-03  5039   0.335E-02    0.992E-02
RMM:   6    -0.230882304153E+04    0.64208E-04   -0.62594E-04  5084   0.188E-02    0.578E-02
RMM:   7    -0.230882300914E+04    0.32389E-04   -0.10308E-04  3571   0.101E-02    0.202E-02
RMM:   8    -0.230882300674E+04    0.24026E-05   -0.28382E-05  2895   0.550E-03
  19 F= -.23292700E+04 E0= -.23292700E+04  d E =-.366643E-01  mag=     2.0000
       N       E                     dE             d eps       ncg     rms          rms(c)
DAV:   1    -0.230878600230E+04    0.37007E-01   -0.47175E+00  4472   0.217E+00    0.634E-01
RMM:   2    -0.230884204594E+04   -0.56044E-01   -0.59277E-01  5950   0.437E-01    0.347E-01
RMM:   3    -0.230884546071E+04   -0.34148E-02   -0.48198E-02  5733   0.127E-01    0.330E-01
RMM:   4    -0.230884460006E+04    0.86065E-03   -0.58349E-03  5565   0.323E-02    0.182E-01
RMM:   5    -0.230884418628E+04    0.41378E-03   -0.10800E-03  4988   0.216E-02    0.721E-02
RMM:   6    -0.230884415827E+04    0.28008E-04   -0.46319E-04  4723   0.148E-02    0.246E-02
RMM:   7    -0.230884415284E+04    0.54284E-05   -0.39525E-05  3047   0.746E-03
  20 F= -.23292909E+04 E0= -.23292909E+04  d E =-.208520E-01  mag=     2.0000
       N       E                     dE             d eps       ncg     rms          rms(c)
DAV:   1    -0.230870657610E+04    0.13758E+00   -0.12141E+01  4464   0.347E+00    0.102E+00
RMM:   2    -0.230885114372E+04   -0.14457E+00   -0.15305E+00  5946   0.687E-01    0.562E-01
RMM:   3    -0.230886073356E+04   -0.95898E-02   -0.12952E-01  5741   0.202E-01    0.564E-01
RMM:   4    -0.230885817633E+04    0.25572E-02   -0.14982E-02  5818   0.516E-02    0.303E-01
RMM:   5    -0.230885717818E+04    0.99815E-03   -0.26895E-03  5234   0.321E-02    0.135E-01
RMM:   6    -0.230885697837E+04    0.19981E-03   -0.14050E-03  5032   0.237E-02    0.445E-02
RMM:   7    -0.230885695731E+04    0.21063E-04   -0.13249E-04  3942   0.137E-02    0.234E-02
RMM:   8    -0.230885695351E+04    0.37998E-05   -0.32403E-05  3009   0.442E-03
  21 F= -.23293033E+04 E0= -.23293033E+04  d E =-.332501E-01  mag=     2.0000
       N       E                     dE             d eps       ncg     rms          rms(c)
DAV:   1    -0.230879632195E+04    0.60635E-01   -0.62819E+00  4472   0.250E+00    0.773E-01
RMM:   2    -0.230887259236E+04   -0.76270E-01   -0.80355E-01  5928   0.502E-01    0.442E-01
RMM:   3    -0.230887745449E+04   -0.48621E-02   -0.64320E-02  5733   0.150E-01    0.470E-01
RMM:   4    -0.230887541007E+04    0.20444E-02   -0.81341E-03  5702   0.396E-02    0.210E-01
RMM:   5    -0.230887483552E+04    0.57454E-03   -0.14403E-03  5031   0.250E-02    0.882E-02
RMM:   6    -0.230887476836E+04    0.67168E-04   -0.69551E-04  4951   0.181E-02    0.287E-02
RMM:   7    -0.230887475983E+04    0.85248E-05   -0.60278E-05  3327   0.966E-03
  22 F= -.23293210E+04 E0= -.23293210E+04  d E =-.177396E-01  mag=     2.0000
       N       E                     dE             d eps       ncg     rms          rms(c)
DAV:   1    -0.230884897945E+04    0.25789E-01   -0.23142E+00  4512   0.151E+00    0.470E-01
RMM:   2    -0.230887696313E+04   -0.27984E-01   -0.29433E-01  5928   0.308E-01    0.280E-01
RMM:   3    -0.230887872490E+04   -0.17618E-02   -0.23301E-02  5713   0.906E-02    0.298E-01
RMM:   4    -0.230887787167E+04    0.85323E-03   -0.30333E-03  5295   0.243E-02    0.123E-01
RMM:   5    -0.230887764572E+04    0.22595E-03   -0.57659E-04  4766   0.162E-02    0.483E-02
RMM:   6    -0.230887763244E+04    0.13272E-04   -0.22079E-04  4265   0.113E-02    0.181E-02
RMM:   7    -0.230887762864E+04    0.38075E-05   -0.21911E-05  2899   0.573E-03
  23 F= -.23293238E+04 E0= -.23293238E+04  d E =-.205828E-01  mag=     2.0000
       N       E                     dE             d eps       ncg     rms          rms(c)
DAV:   1    -0.230886207836E+04    0.15554E-01   -0.21958E+00  4512   0.148E+00    0.444E-01
RMM:   2    -0.230888825033E+04   -0.26172E-01   -0.27261E-01  5984   0.299E-01    0.298E-01
RMM:   3    -0.230888984508E+04   -0.15948E-02   -0.23675E-02  5760   0.866E-02    0.281E-01
RMM:   4    -0.230888910101E+04    0.74407E-03   -0.29202E-03  5346   0.240E-02    0.109E-01
RMM:   5    -0.230888892598E+04    0.17504E-03   -0.47833E-04  4545   0.154E-02    0.449E-02
RMM:   6    -0.230888892048E+04    0.54956E-05   -0.16291E-04  4204   0.106E-02    0.248E-02
RMM:   7    -0.230888891513E+04    0.53523E-05   -0.21939E-05  2886   0.568E-03
  24 F= -.23293352E+04 E0= -.23293352E+04  d E =-.113702E-01  mag=     2.0000
       N       E                     dE             d eps       ncg     rms          rms(c)
DAV:   1    -0.230879426603E+04    0.94654E-01   -0.83734E+00  4432   0.290E+00    0.870E-01
RMM:   2    -0.230889495059E+04   -0.10068E+00   -0.10459E+00  5980   0.583E-01    0.607E-01
RMM:   3    -0.230890077425E+04   -0.58237E-02   -0.97038E-02  5796   0.173E-01    0.541E-01
RMM:   4    -0.230889809034E+04    0.26839E-02   -0.11071E-02  5609   0.466E-02    0.212E-01
RMM:   5    -0.230889745300E+04    0.63733E-03   -0.18646E-03  4964   0.290E-02    0.936E-02
RMM:   6    -0.230889740236E+04    0.50646E-04   -0.59850E-04  5014   0.191E-02    0.544E-02
RMM:   7    -0.230889737774E+04    0.24616E-04   -0.94476E-05  3567   0.100E-02    0.199E-02
RMM:   8    -0.230889737332E+04    0.44182E-05   -0.22465E-05  2855   0.477E-03
  25 F= -.23293439E+04 E0= -.23293439E+04  d E =-.200485E-01  mag=     2.0000
       N       E                     dE             d eps       ncg     rms          rms(c)
DAV:   1    -0.230888857650E+04    0.88012E-02   -0.16588E+00  4480   0.131E+00    0.380E-01
RMM:   2    -0.230890598269E+04   -0.17406E-01   -0.18330E-01  5923   0.258E-01    0.229E-01
RMM:   3    -0.230890712767E+04   -0.11450E-02   -0.15868E-02  5696   0.783E-02    0.237E-01
RMM:   4    -0.230890658981E+04    0.53786E-03   -0.19334E-03  5297   0.211E-02    0.957E-02
RMM:   5    -0.230890646285E+04    0.12696E-03   -0.42936E-04  4461   0.145E-02    0.360E-02
RMM:   6    -0.230890645867E+04    0.41799E-05   -0.10705E-04  3991   0.962E-03    0.190E-02
RMM:   7    -0.230890645595E+04    0.27154E-05   -0.15345E-05  2863   0.500E-03
  26 F= -.23293530E+04 E0= -.23293530E+04  d E =-.913808E-02  mag=     2.0000
       N       E                     dE             d eps       ncg     rms          rms(c)
DAV:   1    -0.230883867243E+04    0.67786E-01   -0.68934E+00  4432   0.267E+00    0.779E-01
RMM:   2    -0.230891151461E+04   -0.72842E-01   -0.76588E-01  5918   0.530E-01    0.483E-01
RMM:   3    -0.230891616242E+04   -0.46478E-02   -0.68116E-02  5755   0.160E-01    0.487E-01
RMM:   4    -0.230891389601E+04    0.22664E-02   -0.79689E-03  5726   0.430E-02    0.195E-01
RMM:   5    -0.230891337705E+04    0.51896E-03   -0.16849E-03  4918   0.282E-02    0.804E-02
RMM:   6    -0.230891332987E+04    0.47180E-04   -0.48493E-04  4908   0.180E-02    0.423E-02
RMM:   7    -0.230891331206E+04    0.17808E-04   -0.66560E-05  3469   0.882E-03    0.164E-02
RMM:   8    -0.230891330788E+04    0.41785E-05   -0.17681E-05  2852   0.474E-03
  27 F= -.23293600E+04 E0= -.23293600E+04  d E =-.161391E-01  mag=     2.0000
       N       E                     dE             d eps       ncg     rms          rms(c)
DAV:   1    -0.230889679385E+04    0.16518E-01   -0.25518E+00  4400   0.162E+00    0.431E-01
RMM:   2    -0.230892216915E+04   -0.25375E-01   -0.27085E-01  5895   0.312E-01    0.237E-01
RMM:   3    -0.230892374936E+04   -0.15802E-02   -0.22243E-02  5670   0.924E-02    0.229E-01
RMM:   4    -0.230892337006E+04    0.37931E-03   -0.26986E-03  5374   0.236E-02    0.134E-01
RMM:   5    -0.230892314508E+04    0.22498E-03   -0.67117E-04  4787   0.177E-02    0.487E-02
RMM:   6    -0.230892313917E+04    0.59093E-05   -0.17793E-04  4239   0.111E-02    0.187E-02
RMM:   7    -0.230892313603E+04    0.31321E-05   -0.18447E-05  2882   0.495E-03
  28 F= -.23293699E+04 E0= -.23293699E+04  d E =-.989795E-02  mag=     2.0000
       N       E                     dE             d eps       ncg     rms          rms(c)
DAV:   1    -0.230887926384E+04    0.43875E-01   -0.48430E+00  4400   0.224E+00    0.595E-01
RMM:   2    -0.230892754582E+04   -0.48282E-01   -0.51521E-01  5899   0.431E-01    0.335E-01
RMM:   3    -0.230893071663E+04   -0.31708E-02   -0.43258E-02  5717   0.128E-01    0.337E-01
RMM:   4    -0.230892984282E+04    0.87381E-03   -0.51334E-03  5677   0.328E-02    0.183E-01
RMM:   5    -0.230892941933E+04    0.42349E-03   -0.12426E-03  4981   0.237E-02    0.682E-02
RMM:   6    -0.230892940015E+04    0.19178E-04   -0.36682E-04  4599   0.151E-02    0.249E-02
RMM:   7    -0.230892939331E+04    0.68450E-05   -0.36246E-05  3059   0.607E-03
  29 F= -.23293763E+04 E0= -.23293763E+04  d E =-.162656E-01  mag=     2.0000
       N       E                     dE             d eps       ncg     rms          rms(c)
DAV:   1    -0.230891945724E+04    0.99429E-02   -0.19098E+00  4528   0.144E+00    0.441E-01
RMM:   2    -0.230893836513E+04   -0.18908E-01   -0.20716E-01  5847   0.280E-01    0.183E-01
RMM:   3    -0.230893919065E+04   -0.82553E-03   -0.17449E-02  5445   0.883E-02    0.114E-01
RMM:   4    -0.230893910008E+04    0.90575E-04   -0.21838E-03  4784   0.248E-02    0.614E-02
RMM:   5    -0.230893909614E+04    0.39344E-05   -0.25740E-04  4447   0.165E-02    0.648E-02
RMM:   6    -0.230893906735E+04    0.28792E-04   -0.11095E-04  3354   0.711E-03    0.291E-02
RMM:   7    -0.230893905769E+04    0.96623E-05   -0.14626E-05  2835   0.493E-03
  30 F= -.23293861E+04 E0= -.23293861E+04  d E =-.980240E-02  mag=     2.0000
       N       E                     dE             d eps       ncg     rms          rms(c)
DAV:   1    -0.230892461248E+04    0.14455E-01   -0.16859E+00  4480   0.135E+00    0.413E-01
RMM:   2    -0.230894128107E+04   -0.16669E-01   -0.18275E-01  5821   0.262E-01    0.172E-01
RMM:   3    -0.230894199092E+04   -0.70984E-03   -0.15422E-02  5437   0.853E-02    0.107E-01
RMM:   4    -0.230894190556E+04    0.85356E-04   -0.19053E-03  4771   0.231E-02    0.642E-02
RMM:   5    -0.230894189527E+04    0.10294E-04   -0.31769E-04  4447   0.168E-02    0.582E-02
RMM:   6    -0.230894186807E+04    0.27197E-04   -0.83509E-05  3369   0.647E-03    0.326E-02
RMM:   7    -0.230894185735E+04    0.10718E-04   -0.14338E-05  2849   0.451E-03    0.102E-02
RMM:   8    -0.230894185473E+04    0.26235E-05   -0.91902E-06  2845   0.265E-03
  31 F= -.23293890E+04 E0= -.23293890E+04  d E =-.127285E-01  mag=     2.0000
       N       E                     dE             d eps       ncg     rms          rms(c)
DAV:   1    -0.230893541337E+04    0.64440E-02   -0.11546E+00  4512   0.110E+00    0.309E-01
RMM:   2    -0.230894801620E+04   -0.12603E-01   -0.13714E-01  5864   0.214E-01    0.139E-01
RMM:   3    -0.230894875868E+04   -0.74248E-03   -0.11893E-02  5454   0.683E-02    0.110E-01
RMM:   4    -0.230894888437E+04   -0.12569E-03   -0.15327E-03  4463   0.164E-02    0.125E-01
RMM:   5    -0.230894870253E+04    0.18183E-03   -0.31034E-04  4353   0.117E-02    0.451E-02
RMM:   6    -0.230894868783E+04    0.14701E-04   -0.96120E-05  3781   0.783E-03    0.135E-02
RMM:   7    -0.230894868731E+04    0.52174E-06   -0.11829E-05  2842   0.543E-03
  32 F= -.23293961E+04 E0= -.23293961E+04  d E =-.702922E-02  mag=     2.0000
       N       E                     dE             d eps       ncg     rms          rms(c)
DAV:   1    -0.230883664756E+04    0.11204E+00   -0.10390E+01  4432   0.329E+00    0.925E-01
RMM:   2    -0.230895020340E+04   -0.11356E+00   -0.12352E+00  5891   0.637E-01    0.425E-01
RMM:   3    -0.230895720766E+04   -0.70043E-02   -0.11205E-01  5555   0.209E-01    0.316E-01
RMM:   4    -0.230895850044E+04   -0.12928E-02   -0.13502E-02  5646   0.489E-02    0.389E-01
RMM:   5    -0.230895679567E+04    0.17048E-02   -0.25797E-03  5285   0.311E-02    0.136E-01
RMM:   6    -0.230895667423E+04    0.12144E-03   -0.89671E-04  4932   0.205E-02    0.397E-02
RMM:   7    -0.230895665652E+04    0.17714E-04   -0.78991E-05  3592   0.122E-02    0.221E-02
RMM:   8    -0.230895664853E+04    0.79897E-05   -0.26314E-05  2947   0.417E-03
  33 F= -.23294046E+04 E0= -.23294046E+04  d E =-.155779E-01  mag=     2.0000
       N       E                     dE             d eps       ncg     rms          rms(c)
DAV:   1    -0.230894422471E+04    0.12432E-01   -0.19317E+00  4472   0.141E+00    0.393E-01
RMM:   2    -0.230896489539E+04   -0.20671E-01   -0.22472E-01  5907   0.279E-01    0.183E-01
RMM:   3    -0.230896607150E+04   -0.11761E-02   -0.18914E-02  5537   0.834E-02    0.118E-01
RMM:   4    -0.230896605999E+04    0.11510E-04   -0.22737E-03  4663   0.228E-02    0.704E-02
RMM:   5    -0.230896611181E+04   -0.51816E-04   -0.32160E-04  4444   0.144E-02    0.103E-01
RMM:   6    -0.230896601712E+04    0.94690E-04   -0.15091E-04  3322   0.793E-03    0.215E-02
RMM:   7    -0.230896601357E+04    0.35458E-05   -0.18873E-05  2862   0.460E-03
  34 F= -.23294143E+04 E0= -.23294143E+04  d E =-.967812E-02  mag=     2.0000
       N       E                     dE             d eps       ncg     rms          rms(c)
DAV:   1    -0.230887810097E+04    0.87916E-01   -0.83929E+00  4400   0.294E+00    0.819E-01
RMM:   2    -0.230896814020E+04   -0.90039E-01   -0.97724E-01  5922   0.580E-01    0.392E-01
RMM:   3    -0.230897362334E+04   -0.54831E-02   -0.86934E-02  5622   0.179E-01    0.245E-01
RMM:   4    -0.230897366407E+04   -0.40730E-04   -0.93467E-03  4807   0.444E-02    0.182E-01
RMM:   5    -0.230897379198E+04   -0.12791E-03   -0.20270E-03  5191   0.327E-02    0.202E-01
RMM:   6    -0.230897338646E+04    0.40552E-03   -0.52079E-04  5254   0.147E-02    0.579E-02
RMM:   7    -0.230897336213E+04    0.24329E-04   -0.62376E-05  2968   0.743E-03    0.220E-02
RMM:   8    -0.230897335961E+04    0.25168E-05   -0.19868E-05  2878   0.361E-03
  35 F= -.23294223E+04 E0= -.23294223E+04  d E =-.176651E-01  mag=     2.0000
       N       E                     dE             d eps       ncg     rms          rms(c)
DAV:   1    -0.230895130757E+04    0.22055E-01   -0.32251E+00  4504   0.185E+00    0.531E-01
RMM:   2    -0.230898221236E+04   -0.30905E-01   -0.33515E-01  5896   0.358E-01    0.270E-01
RMM:   3    -0.230898417735E+04   -0.19650E-02   -0.27902E-02  5685   0.113E-01    0.272E-01
RMM:   4    -0.230898366918E+04    0.50817E-03   -0.34918E-03  5757   0.282E-02    0.161E-01
RMM:   5    -0.230898335864E+04    0.31053E-03   -0.92796E-04  4989   0.211E-02    0.634E-02
RMM:   6    -0.230898333614E+04    0.22506E-04   -0.20659E-04  4435   0.125E-02    0.246E-02
RMM:   7    -0.230898333043E+04    0.57034E-05   -0.25716E-05  2941   0.523E-03
  36 F= -.23294326E+04 E0= -.23294326E+04  d E =-.103022E-01  mag=     2.0000
       N       E                     dE             d eps       ncg     rms          rms(c)
DAV:   1    -0.230896373751E+04    0.19599E-01   -0.22102E+00  4520   0.153E+00    0.439E-01
RMM:   2    -0.230898494529E+04   -0.21208E-01   -0.22990E-01  5905   0.298E-01    0.225E-01
RMM:   3    -0.230898627305E+04   -0.13278E-02   -0.18901E-02  5671   0.930E-02    0.231E-01
RMM:   4    -0.230898588400E+04    0.38905E-03   -0.23940E-03  5609   0.236E-02    0.131E-01
RMM:   5    -0.230898566544E+04    0.21856E-03   -0.66187E-04  4903   0.179E-02    0.512E-02
RMM:   6    -0.230898564772E+04    0.17718E-04   -0.13711E-04  4229   0.107E-02    0.198E-02
RMM:   7    -0.230898564331E+04    0.44044E-05   -0.19564E-05  2878   0.476E-03
  37 F= -.23294352E+04 E0= -.23294352E+04  d E =-.128760E-01  mag=     2.0000
       N       E                     dE             d eps       ncg     rms          rms(c)
DAV:   1    -0.230896243728E+04    0.23210E-01   -0.32593E+00  4400   0.183E+00    0.504E-01
RMM:   2    -0.230899558094E+04   -0.33144E-01   -0.35750E-01  5929   0.351E-01    0.306E-01
RMM:   3    -0.230899801876E+04   -0.24378E-02   -0.29929E-02  5726   0.111E-01    0.331E-01
RMM:   4    -0.230899710954E+04    0.90922E-03   -0.36847E-03  5706   0.283E-02    0.151E-01
RMM:   5    -0.230899683441E+04    0.27513E-03   -0.82502E-04  4827   0.189E-02    0.601E-02
RMM:   6    -0.230899682201E+04    0.12407E-04   -0.21888E-04  4367   0.130E-02    0.209E-02
RMM:   7    -0.230899681955E+04    0.24594E-05   -0.23915E-05  2898   0.532E-03
  38 F= -.23294466E+04 E0= -.23294466E+04  d E =-.114318E-01  mag=     2.0000
       N       E                     dE             d eps       ncg     rms          rms(c)
DAV:   1    -0.230884144993E+04    0.15537E+00   -0.15570E+01  4400   0.401E+00    0.110E+00
RMM:   2    -0.230899879275E+04   -0.15734E+00   -0.17012E+00  5936   0.764E-01    0.666E-01
RMM:   3    -0.230901224690E+04   -0.13454E-01   -0.16168E-01  5754   0.244E-01    0.743E-01
RMM:   4    -0.230900772779E+04    0.45191E-02   -0.17546E-02  5985   0.617E-02    0.338E-01
RMM:   5    -0.230900648110E+04    0.12467E-02   -0.38532E-03  5209   0.384E-02    0.158E-01
RMM:   6    -0.230900628575E+04    0.19535E-03   -0.14116E-03  5114   0.273E-02    0.482E-02
RMM:   7    -0.230900626683E+04    0.18917E-04   -0.15407E-04  4172   0.134E-02    0.251E-02
RMM:   8    -0.230900626593E+04    0.90068E-06   -0.33128E-05  2978   0.444E-03
  39 F= -.23294565E+04 E0= -.23294565E+04  d E =-.213383E-01  mag=     2.0000
       N       E                     dE             d eps       ncg     rms          rms(c)
DAV:   1    -0.230897851690E+04    0.27750E-01   -0.33393E+00  4448   0.182E+00    0.529E-01
RMM:   2    -0.230901508939E+04   -0.36572E-01   -0.39926E-01  5925   0.357E-01    0.297E-01
RMM:   3    -0.230901794349E+04   -0.28541E-02   -0.35117E-02  5718   0.119E-01    0.312E-01
RMM:   4    -0.230901727617E+04    0.66733E-03   -0.40801E-03  5721   0.285E-02    0.170E-01
RMM:   5    -0.230901696309E+04    0.31308E-03   -0.87353E-04  4939   0.190E-02    0.704E-02
RMM:   6    -0.230901694204E+04    0.21050E-04   -0.28117E-04  4584   0.133E-02    0.224E-02
RMM:   7    -0.230901694081E+04    0.12208E-05   -0.27597E-05  2908   0.578E-03
  40 F= -.23294672E+04 E0= -.23294672E+04  d E =-.106737E-01  mag=     2.0000
       N       E                     dE             d eps       ncg     rms          rms(c)
DAV:   1    -0.230895312691E+04    0.63815E-01   -0.60682E+00  4432   0.246E+00    0.712E-01
RMM:   2    -0.230901936028E+04   -0.66233E-01   -0.72307E-01  5939   0.479E-01    0.409E-01
RMM:   3    -0.230902496307E+04   -0.56028E-02   -0.66877E-02  5712   0.161E-01    0.448E-01
RMM:   4    -0.230902348692E+04    0.14762E-02   -0.74005E-03  5946   0.387E-02    0.228E-01
RMM:   5    -0.230902293790E+04    0.54902E-03   -0.15890E-03  5121   0.246E-02    0.100E-01
RMM:   6    -0.230902286724E+04    0.70665E-04   -0.54931E-04  5070   0.175E-02    0.299E-02
RMM:   7    -0.230902286020E+04    0.70419E-05   -0.51696E-05  3197   0.765E-03
  41 F= -.23294730E+04 E0= -.23294730E+04  d E =-.165450E-01  mag=     2.0000
       N       E                     dE             d eps       ncg     rms          rms(c)
DAV:   1    -0.230900512086E+04    0.17746E-01   -0.25215E+00  4512   0.156E+00    0.460E-01
RMM:   2    -0.230903337506E+04   -0.28254E-01   -0.31091E-01  5947   0.305E-01    0.232E-01
RMM:   3    -0.230903512372E+04   -0.17487E-02   -0.25535E-02  5579   0.983E-02    0.157E-01
RMM:   4    -0.230903532289E+04   -0.19918E-03   -0.30740E-03  5278   0.244E-02    0.185E-01
RMM:   5    -0.230903506732E+04    0.25558E-03   -0.78527E-04  5020   0.169E-02    0.969E-02
RMM:   6    -0.230903499802E+04    0.69300E-04   -0.19804E-04  4474   0.986E-03    0.199E-02
RMM:   7    -0.230903499729E+04    0.72661E-06   -0.23288E-05  2852   0.655E-03
  42 F= -.23294850E+04 E0= -.23294850E+04  d E =-.119839E-01  mag=     2.0000
       N       E                     dE             d eps       ncg     rms          rms(c)
DAV:   1    -0.230890683917E+04    0.12816E+00   -0.11615E+01  4464   0.336E+00    0.985E-01
RMM:   2    -0.230903631853E+04   -0.12948E+00   -0.14244E+00  5941   0.653E-01    0.510E-01
RMM:   3    -0.230904621179E+04   -0.98933E-02   -0.13771E-01  5637   0.223E-01    0.379E-01
RMM:   4    -0.230904690381E+04   -0.69202E-03   -0.14503E-02  5777   0.517E-02    0.406E-01
RMM:   5    -0.230904564124E+04    0.12626E-02   -0.34196E-03  5600   0.329E-02    0.211E-01
RMM:   6    -0.230904524355E+04    0.39769E-03   -0.11965E-03  4891   0.226E-02    0.494E-02
RMM:   7    -0.230904523288E+04    0.10666E-04   -0.15338E-04  3617   0.145E-02    0.270E-02
RMM:   8    -0.230904523039E+04    0.24912E-05   -0.34527E-05  2930   0.400E-03
  43 F= -.23294949E+04 E0= -.23294949E+04  d E =-.218393E-01  mag=     2.0000
       N       E                     dE             d eps       ncg     rms          rms(c)
DAV:   1    -0.230903550620E+04    0.97267E-02   -0.16315E+00  4512   0.124E+00    0.353E-01
RMM:   2    -0.230905361187E+04   -0.18106E-01   -0.19855E-01  5967   0.235E-01    0.181E-01
RMM:   3    -0.230905468204E+04   -0.10702E-02   -0.15265E-02  5588   0.742E-02    0.121E-01
RMM:   4    -0.230905480962E+04   -0.12758E-03   -0.19357E-03  4915   0.187E-02    0.139E-01
RMM:   5    -0.230905467795E+04    0.13167E-03   -0.44800E-04  4319   0.124E-02    0.841E-02
RMM:   6    -0.230905462855E+04    0.49399E-04   -0.12353E-04  3995   0.805E-03    0.152E-02
RMM:   7    -0.230905462854E+04    0.70722E-08   -0.17001E-05  2846   0.548E-03
  44 F= -.23295042E+04 E0= -.23295042E+04  d E =-.929579E-02  mag=     2.0000
       N       E                     dE             d eps       ncg     rms          rms(c)
DAV:   1    -0.230889899656E+04    0.15563E+00   -0.14653E+01  4432   0.371E+00    0.105E+00
RMM:   2    -0.230906078459E+04   -0.16179E+00   -0.17745E+00  5970   0.702E-01    0.558E-01
RMM:   3    -0.230907315963E+04   -0.12375E-01   -0.16957E-01  5656   0.234E-01    0.392E-01
RMM:   4    -0.230907397224E+04   -0.81261E-03   -0.17735E-02  5594   0.546E-02    0.390E-01
RMM:   5    -0.230907326442E+04    0.70782E-03   -0.38051E-03  5619   0.330E-02    0.306E-01
RMM:   6    -0.230907240871E+04    0.85571E-03   -0.17180E-03  4915   0.255E-02    0.585E-02
RMM:   7    -0.230907239306E+04    0.15648E-04   -0.21622E-04  3728   0.144E-02    0.338E-02
RMM:   8    -0.230907238680E+04    0.62596E-05   -0.37907E-05  2957   0.427E-03
  45 F= -.23295216E+04 E0= -.23295216E+04  d E =-.267234E-01  mag=     2.0000
       N       E                     dE             d eps       ncg     rms          rms(c)
DAV:   1    -0.230834173752E+04    0.73066E+00   -0.58503E+01  4400   0.744E+00    0.210E+00
RMM:   2    -0.230900416587E+04   -0.66243E+00   -0.72544E+00  6011   0.142E+00    0.111E+00
RMM:   3    -0.230906059303E+04   -0.56427E-01   -0.72786E-01  5698   0.484E-01    0.912E-01
RMM:   4    -0.230906246345E+04   -0.18704E-02   -0.67422E-02  6038   0.103E-01    0.817E-01
RMM:   5    -0.230905850114E+04    0.39623E-02   -0.14958E-02  5796   0.614E-02    0.606E-01
RMM:   6    -0.230905482871E+04    0.36724E-02   -0.91472E-03  4843   0.560E-02    0.162E-01
RMM:   7    -0.230905489355E+04   -0.64836E-04   -0.87478E-04  4630   0.321E-02    0.112E-01
RMM:   8    -0.230905482419E+04    0.69355E-04   -0.21234E-04  4190   0.839E-03    0.588E-02
RMM:   9    -0.230905479499E+04    0.29205E-04   -0.10399E-04  3233   0.788E-03    0.185E-02
RMM:  10    -0.230905480504E+04   -0.10056E-04   -0.30493E-05  2877   0.491E-03    0.124E-02
RMM:  11    -0.230905481576E+04   -0.10715E-04   -0.10941E-05  2827   0.415E-03    0.531E-03
RMM:  12    -0.230905482862E+04   -0.12862E-04   -0.97270E-06  2826   0.345E-03    0.379E-03
RMM:  13    -0.230905483985E+04   -0.11231E-04   -0.58661E-06  2798   0.326E-03    0.192E-03
RMM:  14    -0.230905484927E+04   -0.94228E-05   -0.51793E-06  2792   0.246E-03
  46 F= -.23295034E+04 E0= -.23295034E+04  d E =-.851729E-02  mag=     2.0000
       N       E                     dE             d eps       ncg     rms          rms(c)
DAV:   1    -0.230867250848E+04    0.38233E+00   -0.34054E+01  4432   0.564E+00    0.164E+00
RMM:   2    -0.230905317048E+04   -0.38066E+00   -0.41330E+00  6037   0.112E+00    0.104E+00
RMM:   3    -0.230908747326E+04   -0.34303E-01   -0.40307E-01  5880   0.356E-01    0.111E+00
RMM:   4    -0.230907893305E+04    0.85402E-02   -0.41899E-02  6235   0.878E-02    0.588E-01
RMM:   5    -0.230907602704E+04    0.29060E-02   -0.11397E-02  5401   0.568E-02    0.333E-01
RMM:   6    -0.230907508443E+04    0.94261E-03   -0.42505E-03  4967   0.379E-02    0.114E-01
RMM:   7    -0.230907501867E+04    0.65758E-04   -0.65209E-04  4774   0.260E-02    0.599E-02
RMM:   8    -0.230907500146E+04    0.17211E-04   -0.12810E-04  3574   0.785E-03    0.323E-02
RMM:   9    -0.230907498636E+04    0.15093E-04   -0.45628E-05  2899   0.661E-03    0.133E-02
RMM:  10    -0.230907498458E+04    0.17876E-05   -0.37033E-05  3005   0.463E-03
  47 F= -.23295240E+04 E0= -.23295240E+04  d E =-.291572E-01  mag=     2.0000
       N       E                     dE             d eps       ncg     rms          rms(c)
DAV:   1    -0.230904442684E+04    0.30560E-01   -0.47705E+00  4416   0.211E+00    0.625E-01
RMM:   2    -0.230909301930E+04   -0.48592E-01   -0.53253E-01  5888   0.393E-01    0.323E-01
RMM:   3    -0.230909633866E+04   -0.33194E-02   -0.46907E-02  5539   0.138E-01    0.271E-01
RMM:   4    -0.230909669576E+04   -0.35710E-03   -0.58708E-03  5829   0.327E-02    0.280E-01
RMM:   5    -0.230909588857E+04    0.80718E-03   -0.13344E-03  5284   0.216E-02    0.103E-01
RMM:   6    -0.230909583981E+04    0.48766E-04   -0.39335E-04  4745   0.144E-02    0.267E-02
RMM:   7    -0.230909583657E+04    0.32401E-05   -0.41900E-05  3052   0.825E-03
  48 F= -.23295447E+04 E0= -.23295447E+04  d E =-.207082E-01  mag=     2.0000
       N       E                     dE             d eps       ncg     rms          rms(c)
DAV:   1    -0.230889854653E+04    0.19729E+00   -0.19191E+01  4432   0.424E+00    0.126E+00
RMM:   2    -0.230909524495E+04   -0.19670E+00   -0.21539E+00  5909   0.792E-01    0.656E-01
RMM:   3    -0.230910994872E+04   -0.14704E-01   -0.21010E-01  5589   0.273E-01    0.541E-01
RMM:   4    -0.230911146007E+04   -0.15114E-02   -0.24580E-02  5983   0.651E-02    0.548E-01
RMM:   5    -0.230910856774E+04    0.28923E-02   -0.53857E-03  5615   0.407E-02    0.260E-01
RMM:   6    -0.230910804751E+04    0.52023E-03   -0.20905E-03  5009   0.302E-02    0.659E-02
RMM:   7    -0.230910804812E+04   -0.60513E-06   -0.22551E-04  4265   0.177E-02    0.475E-02
RMM:   8    -0.230910802855E+04    0.19569E-04   -0.59633E-05  3206   0.525E-03    0.195E-02
RMM:   9    -0.230910802713E+04    0.14236E-05   -0.19860E-05  2849   0.408E-03
  49 F= -.23295567E+04 E0= -.23295567E+04  d E =-.326649E-01  mag=     2.0000
       N       E                     dE             d eps       ncg     rms          rms(c)
DAV:   1    -0.230906391189E+04    0.44117E-01   -0.55379E+00  4416   0.222E+00    0.652E-01
RMM:   2    -0.230912092229E+04   -0.57010E-01   -0.62061E-01  5918   0.411E-01    0.358E-01
RMM:   3    -0.230912555212E+04   -0.46298E-02   -0.60178E-02  5604   0.143E-01    0.349E-01
RMM:   4    -0.230912545995E+04    0.92173E-04   -0.69453E-03  6003   0.328E-02    0.262E-01
RMM:   5    -0.230912469371E+04    0.76624E-03   -0.12063E-03  5123   0.197E-02    0.108E-01
RMM:   6    -0.230912465117E+04    0.42539E-04   -0.43766E-04  4759   0.151E-02    0.300E-02
RMM:   7    -0.230912464783E+04    0.33330E-05   -0.40459E-05  3007   0.713E-03
  50 F= -.23295734E+04 E0= -.23295734E+04  d E =-.166668E-01  mag=     2.0000
       N       E                     dE             d eps       ncg     rms          rms(c)
DAV:   1    -0.230868525467E+04    0.43940E+00   -0.39941E+01  4400   0.598E+00    0.175E+00
RMM:   2    -0.230910672114E+04   -0.42147E+00   -0.45966E+00  5932   0.114E+00    0.940E-01
RMM:   3    -0.230914115866E+04   -0.34438E-01   -0.47564E-01  5655   0.377E-01    0.796E-01
RMM:   4    -0.230914314252E+04   -0.19839E-02   -0.49086E-02  6132   0.847E-02    0.725E-01
RMM:   5    -0.230913774399E+04    0.53985E-02   -0.99665E-03  5618   0.513E-02    0.391E-01
RMM:   6    -0.230913645257E+04    0.12914E-02   -0.51384E-03  4987   0.438E-02    0.110E-01
RMM:   7    -0.230913649144E+04   -0.38877E-04   -0.45236E-04  4568   0.241E-02    0.902E-02
RMM:   8    -0.230913641232E+04    0.79127E-04   -0.16722E-04  3731   0.758E-03    0.322E-02
RMM:   9    -0.230913640521E+04    0.71037E-05   -0.59603E-05  2923   0.576E-03
  51 F= -.23295855E+04 E0= -.23295855E+04  d E =-.287640E-01  mag=     2.0000
       N       E                     dE             d eps       ncg     rms          rms(c)
DAV:   1    -0.230906464574E+04    0.71767E-01   -0.10371E+01  4464   0.309E+00    0.934E-01
RMM:   2    -0.230915833894E+04   -0.93693E-01   -0.10289E+00  5848   0.566E-01    0.504E-01
RMM:   3    -0.230916564002E+04   -0.73011E-02   -0.10348E-01  5577   0.206E-01    0.521E-01
RMM:   4    -0.230916452859E+04    0.11114E-02   -0.12316E-02  6088   0.479E-02    0.334E-01
RMM:   5    -0.230916310909E+04    0.14195E-02   -0.26949E-03  5134   0.323E-02    0.127E-01
RMM:   6    -0.230916303980E+04    0.69294E-04   -0.66463E-04  4911   0.218E-02    0.381E-02
RMM:   7    -0.230916303348E+04    0.63188E-05   -0.89389E-05  3673   0.832E-03
  52 F= -.23296122E+04 E0= -.23296122E+04  d E =-.267344E-01  mag=     2.0000
       N       E                     dE             d eps       ncg     rms          rms(c)
DAV:   1    -0.230914473604E+04    0.18304E-01   -0.22574E+00  4560   0.145E+00    0.437E-01
RMM:   2    -0.230916521245E+04   -0.20476E-01   -0.22421E-01  5863   0.264E-01    0.247E-01
RMM:   3    -0.230916679683E+04   -0.15844E-02   -0.20792E-02  5622   0.915E-02    0.277E-01
RMM:   4    -0.230916626815E+04    0.52868E-03   -0.26110E-03  5551   0.228E-02    0.143E-01
RMM:   5    -0.230916599259E+04    0.27556E-03   -0.69829E-04  4856   0.173E-02    0.522E-02
RMM:   6    -0.230916599021E+04    0.23759E-05   -0.11114E-04  3864   0.114E-02    0.169E-02
RMM:   7    -0.230916598885E+04    0.13599E-05   -0.21682E-05  2890   0.444E-03
  53 F= -.23296152E+04 E0= -.23296152E+04  d E =-.297512E-01  mag=     2.0000
       N       E                     dE             d eps       ncg     rms          rms(c)
DAV:   1    -0.230917454944E+04   -0.85592E-02   -0.23251E+00  4432   0.152E+00    0.466E-01
RMM:   2    -0.230918901734E+04   -0.14468E-01   -0.16211E-01  5856   0.278E-01    0.224E-01
RMM:   3    -0.230918937434E+04   -0.35700E-03   -0.13571E-02  5363   0.931E-02    0.172E-01
RMM:   4    -0.230918962275E+04   -0.24842E-03   -0.23154E-03  5525   0.266E-02    0.216E-01
RMM:   5    -0.230918905691E+04    0.56585E-03   -0.89467E-04  5253   0.205E-02    0.458E-02
RMM:   6    -0.230918905408E+04    0.28282E-05   -0.12742E-04  3729   0.920E-03    0.186E-02
RMM:   7    -0.230918905038E+04    0.36955E-05   -0.19873E-05  2871   0.552E-03
  54 F= -.23296382E+04 E0= -.23296382E+04  d E =-.229995E-01  mag=     2.0000
       N       E                     dE             d eps       ncg     rms          rms(c)
DAV:   1    -0.230917501855E+04    0.14036E-01   -0.40056E+00  4400   0.200E+00    0.612E-01
RMM:   2    -0.230920000406E+04   -0.24986E-01   -0.28034E-01  5850   0.366E-01    0.297E-01
RMM:   3    -0.230920069449E+04   -0.69043E-03   -0.23570E-02  5424   0.121E-01    0.245E-01
RMM:   4    -0.230920089768E+04   -0.20319E-03   -0.38285E-03  5682   0.339E-02    0.264E-01
RMM:   5    -0.230920002156E+04    0.87612E-03   -0.15475E-03  5139   0.267E-02    0.570E-02
RMM:   6    -0.230920001082E+04    0.10743E-04   -0.19814E-04  4239   0.131E-02    0.232E-02
RMM:   7    -0.230920000346E+04    0.73595E-05   -0.35705E-05  3152   0.620E-03
  55 F= -.23296491E+04 E0= -.23296491E+04  d E =-.338670E-01  mag=     2.0000
       N       E                     dE             d eps       ncg     rms          rms(c)
DAV:   1    -0.230920871254E+04   -0.87017E-02   -0.21654E+00  4536   0.149E+00    0.442E-01
RMM:   2    -0.230921965036E+04   -0.10938E-01   -0.12254E-01  5837   0.266E-01    0.216E-01
RMM:   3    -0.230921991057E+04   -0.26021E-03   -0.10038E-02  5424   0.877E-02    0.204E-01
RMM:   4    -0.230921977354E+04    0.13703E-03   -0.16321E-03  5511   0.248E-02    0.163E-01
RMM:   5    -0.230921943125E+04    0.34228E-03   -0.79169E-04  5048   0.201E-02    0.389E-02
RMM:   6    -0.230921942374E+04    0.75069E-05   -0.97337E-05  3607   0.100E-02
  56 F= -.23296686E+04 E0= -.23296686E+04  d E =-.194735E-01  mag=     2.0000
       N       E                     dE             d eps       ncg     rms          rms(c)
DAV:   1    -0.230920279062E+04    0.16641E-01   -0.51882E+00  4400   0.230E+00    0.684E-01
RMM:   2    -0.230922914089E+04   -0.26350E-01   -0.29542E-01  5875   0.413E-01    0.340E-01
RMM:   3    -0.230922991089E+04   -0.77000E-03   -0.24350E-02  5537   0.131E-01    0.345E-01
RMM:   4    -0.230922921398E+04    0.69691E-03   -0.38085E-03  5796   0.374E-02    0.231E-01
RMM:   5    -0.230922847255E+04    0.74143E-03   -0.18952E-03  5003   0.302E-02    0.580E-02
RMM:   6    -0.230922844828E+04    0.24264E-04   -0.20697E-04  4289   0.152E-02    0.237E-02
RMM:   7    -0.230922843842E+04    0.98672E-05   -0.49318E-05  3431   0.541E-03
  57 F= -.23296776E+04 E0= -.23296776E+04  d E =-.285536E-01  mag=     2.0000
       N       E                     dE             d eps       ncg     rms          rms(c)
DAV:   1    -0.230923418422E+04   -0.57359E-02   -0.19619E+00  4528   0.138E+00    0.370E-01
RMM:   2    -0.230924532980E+04   -0.11146E-01   -0.11906E-01  5911   0.248E-01    0.225E-01
RMM:   3    -0.230924622238E+04   -0.89258E-03   -0.11749E-02  5657   0.811E-02    0.268E-01
RMM:   4    -0.230924557008E+04    0.65230E-03   -0.13731E-03  5453   0.218E-02    0.111E-01
RMM:   5    -0.230924543147E+04    0.13860E-03   -0.65513E-04  4776   0.167E-02    0.363E-02
RMM:   6    -0.230924543598E+04   -0.45091E-05   -0.66660E-05  3254   0.101E-02
  58 F= -.23296948E+04 E0= -.23296948E+04  d E =-.172082E-01  mag=     2.0000
       N       E                     dE             d eps       ncg     rms          rms(c)
DAV:   1    -0.230916689839E+04    0.78533E-01   -0.17574E+01  4400   0.414E+00    0.110E+00
RMM:   2    -0.230926708482E+04   -0.10019E+00   -0.10753E+00  5903   0.744E-01    0.677E-01
RMM:   3    -0.230927564591E+04   -0.85611E-02   -0.11202E-01  5742   0.240E-01    0.800E-01
RMM:   4    -0.230926949525E+04    0.61507E-02   -0.12432E-02  5983   0.645E-02    0.319E-01
RMM:   5    -0.230926828278E+04    0.12125E-02   -0.57760E-03  4838   0.476E-02    0.107E-01
RMM:   6    -0.230926828435E+04   -0.15690E-05   -0.54843E-04  4644   0.268E-02    0.386E-02
RMM:   7    -0.230926828029E+04    0.40598E-05   -0.12149E-04  3784   0.750E-03    0.233E-02
RMM:   8    -0.230926827491E+04    0.53784E-05   -0.23656E-05  2877   0.634E-03
  59 F= -.23297182E+04 E0= -.23297182E+04  d E =-.406144E-01  mag=     2.0000
       N       E                     dE             d eps       ncg     rms          rms(c)
DAV:   1    -0.230926343774E+04    0.48426E-02   -0.42862E+00  4432   0.204E+00    0.624E-01
RMM:   2    -0.230929482567E+04   -0.31388E-01   -0.33975E-01  5933   0.394E-01    0.371E-01
RMM:   3    -0.230929738627E+04   -0.25606E-02   -0.34250E-02  5754   0.137E-01    0.439E-01
RMM:   4    -0.230929553767E+04    0.18486E-02   -0.40418E-03  5829   0.366E-02    0.166E-01
RMM:   5    -0.230929520333E+04    0.33434E-03   -0.17382E-03  4961   0.270E-02    0.588E-02
RMM:   6    -0.230929519493E+04    0.84014E-05   -0.18517E-04  4201   0.144E-02    0.196E-02
RMM:   7    -0.230929519118E+04    0.37491E-05   -0.33398E-05  3074   0.476E-03
  60 F= -.23297459E+04 E0= -.23297459E+04  d E =-.276495E-01  mag=     2.0000
       N       E                     dE             d eps       ncg     rms          rms(c)
DAV:   1    -0.230928327674E+04    0.11918E-01   -0.24849E+00  4480   0.155E+00    0.476E-01
RMM:   2    -0.230930150290E+04   -0.18226E-01   -0.19729E-01  5949   0.302E-01    0.290E-01
RMM:   3    -0.230930296343E+04   -0.14605E-02   -0.19964E-02  5745   0.103E-01    0.336E-01
RMM:   4    -0.230930185280E+04    0.11106E-02   -0.23199E-03  5657   0.283E-02    0.125E-01
RMM:   5    -0.230930165561E+04    0.19719E-03   -0.10594E-03  4929   0.213E-02    0.437E-02
RMM:   6    -0.230930164959E+04    0.60160E-05   -0.10240E-04  3751   0.114E-02    0.152E-02
RMM:   7    -0.230930164778E+04    0.18146E-05   -0.21012E-05  2924   0.396E-03
  61 F= -.23297529E+04 E0= -.23297529E+04  d E =-.346572E-01  mag=     2.0000
       N       E                     dE             d eps       ncg     rms          rms(c)
DAV:   1    -0.230927146842E+04    0.30181E-01   -0.45900E+00  4400   0.216E+00    0.711E-01
RMM:   2    -0.230932006095E+04   -0.48593E-01   -0.52941E-01  6051   0.441E-01    0.358E-01
RMM:   3    -0.230932422903E+04   -0.41681E-02   -0.56978E-02  5718   0.153E-01    0.397E-01
RMM:   4    -0.230932317343E+04    0.10556E-02   -0.59592E-03  5902   0.374E-02    0.201E-01
RMM:   5    -0.230932270536E+04    0.46807E-03   -0.15683E-03  5414   0.245E-02    0.960E-02
RMM:   6    -0.230932261583E+04    0.89532E-04   -0.50391E-04  4931   0.157E-02    0.265E-02
RMM:   7    -0.230932260917E+04    0.66583E-05   -0.52360E-05  3135   0.955E-03
  62 F= -.23297745E+04 E0= -.23297745E+04  d E =-.216065E-01  mag=     2.0000
       N       E                     dE             d eps       ncg     rms          rms(c)
DAV:   1    -0.230930147238E+04    0.21143E-01   -0.22567E+00  4528   0.151E+00    0.499E-01
RMM:   2    -0.230932539980E+04   -0.23927E-01   -0.26074E-01  6057   0.309E-01    0.250E-01
RMM:   3    -0.230932735183E+04   -0.19520E-02   -0.26463E-02  5685   0.103E-01    0.279E-01
RMM:   4    -0.230932682835E+04    0.52348E-03   -0.29008E-03  5549   0.262E-02    0.140E-01
RMM:   5    -0.230932659431E+04    0.23404E-03   -0.76713E-04  5228   0.180E-02    0.631E-02
RMM:   6    -0.230932656077E+04    0.33540E-04   -0.22523E-04  4519   0.114E-02    0.171E-02
RMM:   7    -0.230932656094E+04   -0.16531E-06   -0.25288E-05  2875   0.681E-03
  63 F= -.23297789E+04 E0= -.23297789E+04  d E =-.260188E-01  mag=     2.0000
       N       E                     dE             d eps       ncg     rms          rms(c)
DAV:   1    -0.230926253527E+04    0.64026E-01   -0.58131E+00  4400   0.238E+00    0.756E-01
RMM:   2    -0.230934017372E+04   -0.77638E-01   -0.84653E-01  6149   0.513E-01    0.366E-01
RMM:   3    -0.230934600023E+04   -0.58265E-02   -0.84846E-02  5702   0.167E-01    0.266E-01
RMM:   4    -0.230934595579E+04    0.44439E-04   -0.87305E-03  5556   0.403E-02    0.179E-01
RMM:   5    -0.230934606069E+04   -0.10490E-03   -0.19733E-03  5499   0.265E-02    0.208E-01
RMM:   6    -0.230934552516E+04    0.53553E-03   -0.80132E-04  4958   0.171E-02    0.499E-02
RMM:   7    -0.230934550313E+04    0.22029E-04   -0.10392E-04  3315   0.848E-03    0.200E-02
RMM:   8    -0.230934549899E+04    0.41430E-05   -0.21456E-05  2853   0.457E-03
  64 F= -.23297984E+04 E0= -.23297984E+04  d E =-.194630E-01  mag=     2.0000
       N       E                     dE             d eps       ncg     rms          rms(c)
DAV:   1    -0.230931113400E+04    0.34369E-01   -0.26606E+00  4488   0.161E+00    0.511E-01
RMM:   2    -0.230934658462E+04   -0.35451E-01   -0.38639E-01  6132   0.347E-01    0.245E-01
RMM:   3    -0.230934905750E+04   -0.24729E-02   -0.36458E-02  5675   0.112E-01    0.173E-01
RMM:   4    -0.230934904544E+04    0.12064E-04   -0.39197E-03  5182   0.276E-02    0.115E-01
RMM:   5    -0.230934907588E+04   -0.30437E-04   -0.86722E-04  5308   0.189E-02    0.130E-01
RMM:   6    -0.230934886728E+04    0.20859E-03   -0.33045E-04  4224   0.115E-02    0.344E-02
RMM:   7    -0.230934885535E+04    0.11933E-04   -0.43022E-05  2863   0.588E-03    0.127E-02
RMM:   8    -0.230934885368E+04    0.16711E-05   -0.11033E-05  2849   0.338E-03
  65 F= -.23298021E+04 E0= -.23298021E+04  d E =-.231919E-01  mag=     2.0000
       N       E                     dE             d eps       ncg     rms          rms(c)
DAV:   1    -0.230927735963E+04    0.71496E-01   -0.58992E+00  4432   0.235E+00    0.752E-01
RMM:   2    -0.230936182138E+04   -0.84462E-01   -0.91554E-01  6206   0.513E-01    0.386E-01
RMM:   3    -0.230936869205E+04   -0.68707E-02   -0.89091E-02  5847   0.162E-01    0.345E-01
RMM:   4    -0.230936815422E+04    0.53783E-03   -0.95030E-03  5832   0.390E-02    0.230E-01
RMM:   5    -0.230936767052E+04    0.48370E-03   -0.17930E-03  5095   0.229E-02    0.144E-01
RMM:   6    -0.230936744811E+04    0.22241E-03   -0.76053E-04  5203   0.169E-02    0.412E-02
RMM:   7    -0.230936743818E+04    0.99356E-05   -0.82373E-05  3233   0.966E-03
  66 F= -.23298213E+04 E0= -.23298213E+04  d E =-.192031E-01  mag=     2.0000
       N       E                     dE             d eps       ncg     rms          rms(c)
DAV:   1    -0.230887818352E+04    0.48926E+00   -0.31408E+01  4432   0.544E+00    0.175E+00
RMM:   2    -0.230933806836E+04   -0.45988E+00   -0.50007E+00  6235   0.120E+00    0.891E-01
RMM:   3    -0.230937595758E+04   -0.37889E-01   -0.48618E-01  5874   0.373E-01    0.784E-01
RMM:   4    -0.230937356786E+04    0.23897E-02   -0.49334E-02  6144   0.884E-02    0.537E-01
RMM:   5    -0.230937139429E+04    0.21736E-02   -0.92755E-03  5425   0.482E-02    0.374E-01
RMM:   6    -0.230936980201E+04    0.15923E-02   -0.44923E-03  5363   0.379E-02    0.119E-01
RMM:   7    -0.230936977749E+04    0.24511E-04   -0.61814E-04  4765   0.219E-02    0.598E-02
RMM:   8    -0.230936975689E+04    0.20603E-04   -0.10325E-04  3516   0.811E-03    0.356E-02
RMM:   9    -0.230936973479E+04    0.22097E-04   -0.48543E-05  2916   0.640E-03    0.147E-02
RMM:  10    -0.230936973434E+04    0.45562E-06   -0.26690E-05  2850   0.437E-03
  67 F= -.23298251E+04 E0= -.23298251E+04  d E =-.229630E-01  mag=     2.0000
       N       E                     dE             d eps       ncg     rms          rms(c)
DAV:   1    -0.230928731530E+04    0.82419E-01   -0.58504E+00  4400   0.234E+00    0.746E-01
RMM:   2    -0.230937072616E+04   -0.83411E-01   -0.89998E-01  6168   0.498E-01    0.375E-01
RMM:   3    -0.230937667355E+04   -0.59474E-02   -0.77683E-02  5849   0.158E-01    0.313E-01
RMM:   4    -0.230937643037E+04    0.24319E-03   -0.90899E-03  5902   0.379E-02    0.227E-01
RMM:   5    -0.230937582721E+04    0.60315E-03   -0.15429E-03  4933   0.232E-02    0.102E-01
RMM:   6    -0.230937577662E+04    0.50596E-04   -0.44251E-04  4746   0.157E-02    0.265E-02
RMM:   7    -0.230937577285E+04    0.37644E-05   -0.42471E-05  2975   0.662E-03
  68 F= -.23298305E+04 E0= -.23298305E+04  d E =-.283640E-01  mag=     2.0000
       N       E                     dE             d eps       ncg     rms          rms(c)
DAV:   1    -0.230927843857E+04    0.97338E-01   -0.73355E+00  4400   0.260E+00    0.837E-01
RMM:   2    -0.230938669826E+04   -0.10826E+00   -0.11672E+00  6214   0.567E-01    0.457E-01
RMM:   3    -0.230939553675E+04   -0.88385E-02   -0.11523E-01  5896   0.181E-01    0.408E-01
RMM:   4    -0.230939446374E+04    0.10730E-02   -0.11724E-02  5958   0.435E-02    0.249E-01
RMM:   5    -0.230939385768E+04    0.60607E-03   -0.21799E-03  5194   0.248E-02    0.153E-01
RMM:   6    -0.230939358796E+04    0.26971E-03   -0.88588E-04  5092   0.178E-02    0.464E-02
RMM:   7    -0.230939358362E+04    0.43423E-05   -0.11352E-04  3579   0.109E-02    0.226E-02
RMM:   8    -0.230939358111E+04    0.25152E-05   -0.22817E-05  2870   0.413E-03
  69 F= -.23298494E+04 E0= -.23298494E+04  d E =-.188832E-01  mag=     2.0000
       N       E                     dE             d eps       ncg     rms          rms(c)
DAV:   1    -0.230927050665E+04    0.12308E+00   -0.81119E+00  4400   0.273E+00    0.883E-01
RMM:   2    -0.230939048590E+04   -0.11998E+00   -0.12949E+00  6212   0.597E-01    0.480E-01
RMM:   3    -0.230940031408E+04   -0.98282E-02   -0.12769E-01  5920   0.191E-01    0.427E-01
RMM:   4    -0.230939914808E+04    0.11660E-02   -0.12978E-02  6002   0.457E-02    0.261E-01
RMM:   5    -0.230939849898E+04    0.64910E-03   -0.24144E-03  5256   0.260E-02    0.162E-01
RMM:   6    -0.230939820922E+04    0.28976E-03   -0.98660E-04  5111   0.186E-02    0.488E-02
RMM:   7    -0.230939820570E+04    0.35210E-05   -0.12450E-04  3699   0.114E-02    0.240E-02
RMM:   8    -0.230939820269E+04    0.30094E-05   -0.25833E-05  2882   0.423E-03
  70 F= -.23298551E+04 E0= -.23298551E+04  d E =-.246241E-01  mag=     2.0000
       N       E                     dE             d eps       ncg     rms          rms(c)
DAV:   1    -0.230930434424E+04    0.93861E-01   -0.70319E+00  4432   0.260E+00    0.828E-01
RMM:   2    -0.230940419788E+04   -0.99854E-01   -0.10828E+00  6158   0.549E-01    0.404E-01
RMM:   3    -0.230941267957E+04   -0.84817E-02   -0.10943E-01  5839   0.182E-01    0.342E-01
RMM:   4    -0.230941220900E+04    0.47057E-03   -0.11064E-02  5903   0.417E-02    0.236E-01
RMM:   5    -0.230941172721E+04    0.48178E-03   -0.19273E-03  5075   0.235E-02    0.158E-01
RMM:   6    -0.230941143209E+04    0.29512E-03   -0.91959E-04  5213   0.185E-02    0.439E-02
RMM:   7    -0.230941142073E+04    0.11362E-04   -0.10342E-04  3525   0.106E-02    0.215E-02
RMM:   8    -0.230941141661E+04    0.41160E-05   -0.22004E-05  2856   0.395E-03
  71 F= -.23298696E+04 E0= -.23298696E+04  d E =-.145386E-01  mag=     2.0000
       N       E                     dE             d eps       ncg     rms          rms(c)
DAV:   1    -0.230932643857E+04    0.84982E-01   -0.57910E+00  4448   0.235E+00    0.750E-01
RMM:   2    -0.230940841364E+04   -0.81975E-01   -0.88902E-01  6149   0.496E-01    0.365E-01
RMM:   3    -0.230941537645E+04   -0.69628E-02   -0.89790E-02  5843   0.165E-01    0.307E-01
RMM:   4    -0.230941502171E+04    0.35474E-03   -0.91327E-03  5896   0.377E-02    0.214E-01
RMM:   5    -0.230941461889E+04    0.40283E-03   -0.15716E-03  4956   0.212E-02    0.143E-01
RMM:   6    -0.230941437491E+04    0.24397E-03   -0.76155E-04  5229   0.169E-02    0.388E-02
RMM:   7    -0.230941436284E+04    0.12077E-04   -0.83381E-05  3343   0.966E-03    0.192E-02
RMM:   8    -0.230941435876E+04    0.40742E-05   -0.19688E-05  2860   0.374E-03
  72 F= -.23298738E+04 E0= -.23298738E+04  d E =-.186750E-01  mag=     2.0000
       N       E                     dE             d eps       ncg     rms          rms(c)
DAV:   1    -0.230926418512E+04    0.15018E+00   -0.99090E+00  4432   0.306E+00    0.998E-01
RMM:   2    -0.230941362473E+04   -0.14944E+00   -0.16270E+00  6110   0.661E-01    0.476E-01
RMM:   3    -0.230942726392E+04   -0.13639E-01   -0.17789E-01  5820   0.231E-01    0.363E-01
RMM:   4    -0.230942704349E+04    0.22043E-03   -0.16882E-02  5864   0.506E-02    0.256E-01
RMM:   5    -0.230942682266E+04    0.22084E-03   -0.32677E-03  5331   0.306E-02    0.247E-01
RMM:   6    -0.230942606977E+04    0.75289E-03   -0.13752E-03  5587   0.221E-02    0.616E-02
RMM:   7    -0.230942603293E+04    0.36838E-04   -0.17162E-04  4032   0.112E-02    0.285E-02
RMM:   8    -0.230942602143E+04    0.11507E-04   -0.33310E-05  2884   0.534E-03    0.154E-02
RMM:   9    -0.230942601880E+04    0.26288E-05   -0.20951E-05  2859   0.380E-03
  73 F= -.23298874E+04 E0= -.23298874E+04  d E =-.136072E-01  mag=     2.0000
       N       E                     dE             d eps       ncg     rms          rms(c)
DAV:   1    -0.230942427736E+04    0.17441E-02   -0.10378E-01  5032   0.314E-01    0.102E-01
RMM:   2    -0.230942585048E+04   -0.15731E-02   -0.17081E-02  6177   0.674E-02    0.477E-02
RMM:   3    -0.230942596722E+04   -0.11674E-03   -0.15810E-03  3858   0.222E-02    0.337E-02
RMM:   4    -0.230942597008E+04   -0.28570E-05   -0.17322E-04  2923   0.624E-03    0.279E-02
RMM:   5    -0.230942596479E+04    0.52861E-05   -0.36513E-05  2842   0.448E-03
  74 F= -.23298875E+04 E0= -.23298875E+04  d E =-.137529E-01  mag=     2.0000
       N       E                     dE             d eps       ncg     rms          rms(c)
DAV:   1    -0.230935928748E+04    0.66683E-01   -0.43909E+00  4432   0.203E+00    0.650E-01
RMM:   2    -0.230942883021E+04   -0.69543E-01   -0.75524E-01  6066   0.434E-01    0.315E-01
RMM:   3    -0.230943539947E+04   -0.65693E-02   -0.84403E-02  5826   0.154E-01    0.231E-01
RMM:   4    -0.230943539317E+04    0.62976E-05   -0.79666E-03  5499   0.329E-02    0.160E-01
RMM:   5    -0.230943527036E+04    0.12281E-03   -0.14957E-03  5000   0.219E-02    0.149E-01
RMM:   6    -0.230943502572E+04    0.24464E-03   -0.51413E-04  5049   0.136E-02    0.507E-02
RMM:   7    -0.230943500335E+04    0.22367E-04   -0.76114E-05  3067   0.728E-03    0.188E-02
RMM:   8    -0.230943500016E+04    0.31885E-05   -0.15444E-05  2849   0.427E-03
  75 F= -.23298979E+04 E0= -.23298979E+04  d E =-.103974E-01  mag=     2.0000
       N       E                     dE             d eps       ncg     rms          rms(c)
DAV:   1    -0.230936630863E+04    0.68695E-01   -0.40714E+00  4432   0.195E+00    0.625E-01
RMM:   2    -0.230943075881E+04   -0.64450E-01   -0.69944E-01  6092   0.418E-01    0.303E-01
RMM:   3    -0.230943677171E+04   -0.60129E-02   -0.77414E-02  5829   0.148E-01    0.222E-01
RMM:   4    -0.230943676654E+04    0.51622E-05   -0.73567E-03  5428   0.316E-02    0.154E-01
RMM:   5    -0.230943664815E+04    0.11840E-03   -0.14028E-03  4955   0.214E-02    0.142E-01
RMM:   6    -0.230943642434E+04    0.22381E-03   -0.46493E-04  5019   0.132E-02    0.489E-02
RMM:   7    -0.230943640217E+04    0.22169E-04   -0.69354E-05  3041   0.701E-03    0.184E-02
RMM:   8    -0.230943639874E+04    0.34246E-05   -0.14881E-05  2847   0.419E-03
  76 F= -.23299006E+04 E0= -.23299006E+04  d E =-.131133E-01  mag=     2.0000
       N       E                     dE             d eps       ncg     rms          rms(c)
DAV:   1    -0.230940172796E+04    0.34674E-01   -0.26036E+00  4432   0.159E+00    0.478E-01
RMM:   2    -0.230943994319E+04   -0.38215E-01   -0.41371E-01  6055   0.327E-01    0.237E-01
RMM:   3    -0.230944340144E+04   -0.34583E-02   -0.44361E-02  5853   0.115E-01    0.181E-01
RMM:   4    -0.230944336534E+04    0.36099E-04   -0.42322E-03  4995   0.242E-02    0.134E-01
RMM:   5    -0.230944322285E+04    0.14250E-03   -0.76877E-04  4491   0.156E-02    0.103E-01
RMM:   6    -0.230944309839E+04    0.12445E-03   -0.32916E-04  4849   0.116E-02    0.277E-02
RMM:   7    -0.230944309421E+04    0.41883E-05   -0.37058E-05  2885   0.705E-03
  77 F= -.23299081E+04 E0= -.23299081E+04  d E =-.749418E-02  mag=     2.0000
       N       E                     dE             d eps       ncg     rms          rms(c)
DAV:   1    -0.230928394432E+04    0.15915E+00   -0.10149E+01  4432   0.314E+00    0.950E-01
RMM:   2    -0.230943386927E+04   -0.14992E+00   -0.16264E+00  6053   0.653E-01    0.476E-01
RMM:   3    -0.230944840643E+04   -0.14537E-01   -0.18463E-01  5881   0.236E-01    0.372E-01
RMM:   4    -0.230944808988E+04    0.31655E-03   -0.16742E-02  5769   0.482E-02    0.263E-01
RMM:   5    -0.230944759267E+04    0.49721E-03   -0.30456E-03  5234   0.288E-02    0.217E-01
RMM:   6    -0.230944702643E+04    0.56624E-03   -0.13421E-03  5410   0.214E-02    0.668E-02
RMM:   7    -0.230944699853E+04    0.27899E-04   -0.19563E-04  4219   0.124E-02    0.334E-02
RMM:   8    -0.230944698629E+04    0.12242E-04   -0.36048E-05  2875   0.540E-03    0.169E-02
RMM:   9    -0.230944698155E+04    0.47356E-05   -0.18396E-05  2846   0.364E-03
  78 F= -.23299136E+04 E0= -.23299136E+04  d E =-.129658E-01  mag=     2.0000
       N       E                     dE             d eps       ncg     rms          rms(c)
DAV:   1    -0.230940963814E+04    0.37348E-01   -0.33966E+00  4432   0.186E+00    0.537E-01
RMM:   2    -0.230945257666E+04   -0.42939E-01   -0.46021E-01  5953   0.365E-01    0.304E-01
RMM:   3    -0.230945593587E+04   -0.33592E-02   -0.45861E-02  5797   0.126E-01    0.252E-01
RMM:   4    -0.230945546262E+04    0.47325E-03   -0.45334E-03  5594   0.285E-02    0.153E-01
RMM:   5    -0.230945517804E+04    0.28458E-03   -0.99428E-04  4804   0.191E-02    0.907E-02
RMM:   6    -0.230945508258E+04    0.95458E-04   -0.40916E-04  4883   0.135E-02    0.272E-02
RMM:   7    -0.230945507937E+04    0.32149E-05   -0.51148E-05  2961   0.854E-03
  79 F= -.23299222E+04 E0= -.23299222E+04  d E =-.864042E-02  mag=     2.0000
       N       E                     dE             d eps       ncg     rms          rms(c)
DAV:   1    -0.230940453557E+04    0.50547E-01   -0.38907E+00  4432   0.199E+00    0.578E-01
RMM:   2    -0.230945382550E+04   -0.49290E-01   -0.52920E-01  5949   0.390E-01    0.328E-01
RMM:   3    -0.230945770645E+04   -0.38809E-02   -0.52910E-02  5786   0.134E-01    0.271E-01
RMM:   4    -0.230945716173E+04    0.54472E-03   -0.52183E-03  5653   0.305E-02    0.165E-01
RMM:   5    -0.230945683909E+04    0.32264E-03   -0.11323E-03  4885   0.201E-02    0.984E-02
RMM:   6    -0.230945672412E+04    0.11497E-03   -0.46805E-04  4919   0.143E-02    0.300E-02
RMM:   7    -0.230945671958E+04    0.45353E-05   -0.60709E-05  3112   0.910E-03
  80 F= -.23299245E+04 E0= -.23299245E+04  d E =-.108571E-01  mag=     2.0000
       N       E                     dE             d eps       ncg     rms          rms(c)
DAV:   1    -0.230939989052E+04    0.56834E-01   -0.51088E+00  4432   0.230E+00    0.646E-01
RMM:   2    -0.230946100883E+04   -0.61118E-01   -0.64592E-01  5914   0.438E-01    0.424E-01
RMM:   3    -0.230946486938E+04   -0.38606E-02   -0.62486E-02  5793   0.149E-01    0.328E-01
RMM:   4    -0.230946387027E+04    0.99911E-03   -0.62307E-03  5730   0.342E-02    0.179E-01
RMM:   5    -0.230946343754E+04    0.43273E-03   -0.13456E-03  4832   0.223E-02    0.998E-02
RMM:   6    -0.230946332823E+04    0.10931E-03   -0.58196E-04  5085   0.160E-02    0.321E-02
RMM:   7    -0.230946332800E+04    0.22468E-06   -0.69561E-05  3252   0.951E-03
  81 F= -.23299316E+04 E0= -.23299316E+04  d E =-.711608E-02  mag=     2.0000
       N       E                     dE             d eps       ncg     rms          rms(c)
DAV:   1    -0.230944051769E+04    0.22811E-01   -0.18938E+00  4480   0.140E+00    0.393E-01
RMM:   2    -0.230946311440E+04   -0.22597E-01   -0.23936E-01  5905   0.265E-01    0.250E-01
RMM:   3    -0.230946456962E+04   -0.14552E-02   -0.22585E-02  5735   0.894E-02    0.198E-01
RMM:   4    -0.230946421141E+04    0.35821E-03   -0.23265E-03  5123   0.208E-02    0.109E-01
RMM:   5    -0.230946404799E+04    0.16342E-03   -0.49246E-04  4247   0.144E-02    0.600E-02
RMM:   6    -0.230946400927E+04    0.38714E-04   -0.22302E-04  4462   0.107E-02    0.186E-02
RMM:   7    -0.230946400845E+04    0.82236E-06   -0.26531E-05  2851   0.686E-03
  82 F= -.23299326E+04 E0= -.23299326E+04  d E =-.810126E-02  mag=     2.0000
       N       E                     dE             d eps       ncg     rms          rms(c)
DAV:   1    -0.230941498900E+04    0.49020E-01   -0.44470E+00  4464   0.216E+00    0.611E-01
RMM:   2    -0.230946946042E+04   -0.54471E-01   -0.57033E-01  5898   0.414E-01    0.413E-01
RMM:   3    -0.230947248760E+04   -0.30272E-02   -0.53771E-02  5759   0.145E-01    0.304E-01
RMM:   4    -0.230947163939E+04    0.84821E-03   -0.55255E-03  5715   0.325E-02    0.169E-01
RMM:   5    -0.230947124498E+04    0.39441E-03   -0.11206E-03  4757   0.214E-02    0.922E-02
RMM:   6    -0.230947115365E+04    0.91330E-04   -0.55260E-04  5114   0.160E-02    0.313E-02
RMM:   7    -0.230947114995E+04    0.37004E-05   -0.63275E-05  3136   0.954E-03
  83 F= -.23299403E+04 E0= -.23299403E+04  d E =-.774257E-02  mag=     2.0000
       N       E                     dE             d eps       ncg     rms          rms(c)
DAV:   1    -0.230944847342E+04    0.22680E-01   -0.18686E+00  4448   0.140E+00    0.395E-01
RMM:   2    -0.230947132378E+04   -0.22850E-01   -0.23987E-01  5881   0.269E-01    0.260E-01
RMM:   3    -0.230947264568E+04   -0.13219E-02   -0.22194E-02  5706   0.923E-02    0.196E-01
RMM:   4    -0.230947230291E+04    0.34278E-03   -0.23427E-03  5284   0.210E-02    0.110E-01
RMM:   5    -0.230947213721E+04    0.16570E-03   -0.45877E-04  4227   0.145E-02    0.597E-02
RMM:   6    -0.230947210014E+04    0.37064E-04   -0.24332E-04  4618   0.113E-02    0.198E-02
RMM:   7    -0.230947209864E+04    0.15046E-05   -0.27851E-05  2856   0.725E-03
  84 F= -.23299416E+04 E0= -.23299416E+04  d E =-.907864E-02  mag=     2.0000
       N       E                     dE             d eps       ncg     rms          rms(c)
DAV:   1    -0.230941973255E+04    0.52368E-01   -0.45123E+00  4464   0.217E+00    0.590E-01
RMM:   2    -0.230947662521E+04   -0.56893E-01   -0.59382E-01  5880   0.416E-01    0.399E-01
RMM:   3    -0.230947989522E+04   -0.32700E-02   -0.56459E-02  5691   0.148E-01    0.277E-01
RMM:   4    -0.230947932423E+04    0.57099E-03   -0.57742E-03  5706   0.312E-02    0.172E-01
RMM:   5    -0.230947891790E+04    0.40634E-03   -0.10620E-03  4685   0.202E-02    0.982E-02
RMM:   6    -0.230947881254E+04    0.10535E-03   -0.66714E-04  5140   0.164E-02    0.359E-02
RMM:   7    -0.230947880431E+04    0.82310E-05   -0.78612E-05  3109   0.101E-02
  85 F= -.23299490E+04 E0= -.23299490E+04  d E =-.733318E-02  mag=     2.0000
       N       E                     dE             d eps       ncg     rms          rms(c)
DAV:   1    -0.230944394224E+04    0.34870E-01   -0.27432E+00  4464   0.169E+00    0.461E-01
RMM:   2    -0.230947848386E+04   -0.34542E-01   -0.36120E-01  5875   0.324E-01    0.306E-01
RMM:   3    -0.230948050902E+04   -0.20252E-02   -0.33912E-02  5670   0.113E-01    0.215E-01
RMM:   4    -0.230948017433E+04    0.33469E-03   -0.35376E-03  5504   0.243E-02    0.134E-01
RMM:   5    -0.230947992679E+04    0.24754E-03   -0.63270E-04  4432   0.160E-02    0.766E-02
RMM:   6    -0.230947986422E+04    0.62572E-04   -0.41446E-04  4966   0.133E-02    0.276E-02
RMM:   7    -0.230947985826E+04    0.59590E-05   -0.44835E-05  2892   0.820E-03
  86 F= -.23299505E+04 E0= -.23299505E+04  d E =-.887366E-02  mag=     2.0000
       N       E                     dE             d eps       ncg     rms          rms(c)
DAV:   1    -0.230943686383E+04    0.43000E-01   -0.40297E+00  4464   0.208E+00    0.551E-01
RMM:   2    -0.230948237151E+04   -0.45508E-01   -0.47759E-01  5767   0.385E-01    0.349E-01
RMM:   3    -0.230948496199E+04   -0.25905E-02   -0.46379E-02  5547   0.142E-01    0.240E-01
RMM:   4    -0.230948454502E+04    0.41697E-03   -0.46038E-03  5662   0.298E-02    0.163E-01
RMM:   5    -0.230948417558E+04    0.36944E-03   -0.10758E-03  4838   0.209E-02    0.946E-02
RMM:   6    -0.230948406668E+04    0.10890E-03   -0.57253E-04  5120   0.157E-02    0.348E-02
RMM:   7    -0.230948405411E+04    0.12568E-04   -0.65647E-05  3144   0.984E-03    0.190E-02
RMM:   8    -0.230948404808E+04    0.60260E-05   -0.18243E-05  2846   0.359E-03
  87 F= -.23299554E+04 E0= -.23299554E+04  d E =-.487177E-02  mag=     2.0000
       N       E                     dE             d eps       ncg     rms          rms(c)
DAV:   1    -0.230948283947E+04    0.12146E-02   -0.10018E-01  4800   0.328E-01    0.865E-02
RMM:   2    -0.230948397301E+04   -0.11335E-02   -0.11913E-02  5867   0.613E-02    0.527E-02
RMM:   3    -0.230948403711E+04   -0.64103E-04   -0.10918E-03  3970   0.226E-02    0.376E-02
RMM:   4    -0.230948402728E+04    0.98343E-05   -0.11610E-04  2907   0.579E-03    0.263E-02
RMM:   5    -0.230948401678E+04    0.10500E-04   -0.30211E-05  2840   0.447E-03    0.144E-02
RMM:   6    -0.230948401440E+04    0.23805E-05   -0.16759E-05  2893   0.394E-03
  88 F= -.23299555E+04 E0= -.23299555E+04  d E =-.494522E-02  mag=     2.0000
       N       E                     dE             d eps       ncg     rms          rms(c)
DAV:   1    -0.230946517172E+04    0.18845E-01   -0.22282E+00  4472   0.157E+00    0.389E-01
RMM:   2    -0.230948709630E+04   -0.21925E-01   -0.23214E-01  5644   0.277E-01    0.239E-01
RMM:   3    -0.230948822428E+04   -0.11280E-02   -0.21484E-02  5319   0.108E-01    0.169E-01
RMM:   4    -0.230948802360E+04    0.20068E-03   -0.21592E-03  5359   0.219E-02    0.120E-01
RMM:   5    -0.230948782335E+04    0.20025E-03   -0.62715E-04  4638   0.164E-02    0.683E-02
RMM:   6    -0.230948776760E+04    0.55752E-04   -0.26781E-04  4733   0.116E-02    0.222E-02
RMM:   7    -0.230948776377E+04    0.38334E-05   -0.28427E-05  2883   0.741E-03
  89 F= -.23299597E+04 E0= -.23299597E+04  d E =-.420969E-02  mag=     2.0000
[...]
       N       E                     dE             d eps       ncg     rms          rms(c)
DAV:   1    -0.230957121533E+04   -0.15422E-04   -0.17382E-03  4352   0.451E-02    0.137E-02
RMM:   2    -0.230957122670E+04   -0.11363E-04   -0.12099E-04  3877   0.104E-02    0.114E-02
RMM:   3    -0.230957122697E+04   -0.27256E-06   -0.15141E-05  2469   0.512E-03
 247 F= -.23300540E+04 E0= -.23300540E+04  d E =-.150791E-04  mag=     2.0000
       N       E                     dE             d eps       ncg     rms          rms(c)
DAV:   1    -0.230957123002E+04   -0.33275E-05   -0.30095E-04  4608   0.188E-02    0.686E-03
RMM:   2    -0.230957123171E+04   -0.16836E-05   -0.21408E-05  2643   0.435E-03
 248 F= -.23300540E+04 E0= -.23300540E+04  d E =-.160330E-04  mag=     2.0000
       N       E                     dE             d eps       ncg     rms          rms(c)
DAV:   1    -0.230957124083E+04   -0.10803E-04   -0.95252E-04  4336   0.339E-02    0.112E-02
RMM:   2    -0.230957124579E+04   -0.49610E-05   -0.58048E-05  3149   0.786E-03
 249 F= -.23300541E+04 E0= -.23300541E+04  d E =-.155533E-04  mag=     2.0000
       N       E                     dE             d eps       ncg     rms          rms(c)
DAV:   1    -0.230957124645E+04   -0.56192E-05   -0.40510E-04  4592   0.226E-02    0.954E-03
RMM:   2    -0.230957124999E+04   -0.35437E-05   -0.33213E-05  2773   0.560E-03
 250 F= -.23300541E+04 E0= -.23300541E+04  d E =-.207120E-04  mag=     2.0000
       N       E                     dE             d eps       ncg     rms          rms(c)
DAV:   1    -0.230957125146E+04   -0.50107E-05   -0.68872E-04  4352   0.291E-02    0.108E-02
RMM:   2    -0.230957125517E+04   -0.37125E-05   -0.44364E-05  3050   0.696E-03
 251 F= -.23300541E+04 E0= -.23300541E+04  d E =-.710992E-05  mag=     2.0000
       N       E                     dE             d eps       ncg     rms          rms(c)
DAV:   1    -0.230957125526E+04   -0.38058E-05   -0.11398E-05  3552   0.565E-03    0.776E-03
RMM:   2    -0.230957125803E+04   -0.27726E-05   -0.95344E-06  2342   0.296E-03
 252 F= -.23300541E+04 E0= -.23300541E+04  d E =-.101032E-04  mag=     2.0000
       N       E                     dE             d eps       ncg     rms          rms(c)
DAV:   1    -0.230957126277E+04   -0.75116E-05   -0.63118E-04  4288   0.274E-02    0.870E-03
RMM:   2    -0.230957126611E+04   -0.33387E-05   -0.40261E-05  2751   0.619E-03
 253 F= -.23300541E+04 E0= -.23300541E+04  d E =-.597752E-05  mag=     2.0000
       N       E                     dE             d eps       ncg     rms          rms(c)
DAV:   1    -0.230957126760E+04   -0.48311E-05   -0.78020E-05  5024   0.103E-02    0.638E-03
RMM:   2    -0.230957126944E+04   -0.18367E-05   -0.11311E-05  2343   0.284E-03
 254 F= -.23300541E+04 E0= -.23300541E+04  d E =-.857167E-05  mag=     2.0000
       N       E                     dE             d eps       ncg     rms          rms(c)
DAV:   1    -0.230957127348E+04   -0.58743E-05   -0.71718E-04  4288   0.290E-02    0.904E-03
RMM:   2    -0.230957127740E+04   -0.39221E-05   -0.45683E-05  2718   0.628E-03
 255 F= -.23300541E+04 E0= -.23300541E+04  d E =-.525713E-05  mag=     2.0000
       N       E                     dE             d eps       ncg     rms          rms(c)
DAV:   1    -0.230957127918E+04   -0.57018E-05   -0.13045E-04  4800   0.129E-02    0.557E-03
RMM:   2    -0.230957128054E+04   -0.13621E-05   -0.12796E-05  2346   0.342E-03
 256 F= -.23300541E+04 E0= -.23300541E+04  d E =-.724511E-05  mag=     2.0000
       N       E                     dE             d eps       ncg     rms          rms(c)
DAV:   1    -0.230957128639E+04   -0.72066E-05   -0.36916E-04  4152   0.210E-02    0.688E-03
RMM:   2    -0.230957128877E+04   -0.23784E-05   -0.27441E-05  2458   0.526E-03
 257 F= -.23300541E+04 E0= -.23300541E+04  d E =-.632673E-05  mag=     2.0000
       N       E                     dE             d eps       ncg     rms          rms(c)
DAV:   1    -0.230957129110E+04   -0.47076E-05   -0.15351E-04  4408   0.139E-02    0.654E-03
RMM:   2    -0.230957129325E+04   -0.21592E-05   -0.16702E-05  2421   0.395E-03
 258 F= -.23300541E+04 E0= -.23300541E+04  d E =-.960187E-05  mag=     2.0000
       N       E                     dE             d eps       ncg     rms          rms(c)
DAV:   1    -0.230957129076E+04    0.33414E-06   -0.60933E-04  4304   0.268E-02    0.910E-03
RMM:   2    -0.230957129444E+04   -0.36801E-05   -0.44045E-05  2934   0.631E-03
 259 F= -.23300541E+04 E0= -.23300541E+04  d E =-.836296E-05  mag=     2.0000
       N       E                     dE             d eps       ncg     rms          rms(c)
DAV:   1    -0.230957130001E+04   -0.92487E-05   -0.40868E-04  4368   0.219E-02    0.768E-03
RMM:   2    -0.230957130406E+04   -0.40536E-05   -0.37356E-05  2743   0.551E-03
 260 F= -.23300541E+04 E0= -.23300541E+04  d E =-.777623E-05  mag=     2.0000
       N       E                     dE             d eps       ncg     rms          rms(c)
DAV:   1    -0.230957130523E+04   -0.52155E-05   -0.49181E-04  4264   0.241E-02    0.784E-03
RMM:   2    -0.230957130887E+04   -0.36404E-05   -0.40192E-05  2768   0.594E-03
 261 F= -.23300541E+04 E0= -.23300541E+04  d E =-.105716E-04  mag=     2.0000
       N       E                     dE             d eps       ncg     rms          rms(c)
DAV:   1    -0.230957129996E+04    0.52699E-05   -0.19373E-03  4408   0.470E-02    0.141E-02
RMM:   2    -0.230957131383E+04   -0.13871E-04   -0.14776E-04  3882   0.107E-02    0.112E-02
RMM:   3    -0.230957131460E+04   -0.77009E-06   -0.18188E-05  2630   0.514E-03
 262 F= -.23300541E+04 E0= -.23300541E+04  d E =-.122837E-04  mag=     2.0000
       N       E                     dE             d eps       ncg     rms          rms(c)
DAV:   1    -0.230957132154E+04   -0.77160E-05   -0.72396E-04  4336   0.287E-02    0.885E-03
RMM:   2    -0.230957132623E+04   -0.46843E-05   -0.53155E-05  3018   0.632E-03
 263 F= -.23300541E+04 E0= -.23300541E+04  d E =-.107839E-04  mag=     2.0000
       N       E                     dE             d eps       ncg     rms          rms(c)
DAV:   1    -0.230957130223E+04    0.19313E-04   -0.65569E-03  4400   0.860E-02    0.239E-02
RMM:   2    -0.230957134625E+04   -0.44017E-04   -0.48078E-04  5473   0.177E-02    0.145E-02
RMM:   3    -0.230957135000E+04   -0.37510E-05   -0.53769E-05  2851   0.650E-03
 264 F= -.23300541E+04 E0= -.23300541E+04  d E =-.320217E-04  mag=     2.0000
       N       E                     dE             d eps       ncg     rms          rms(c)
DAV:   1    -0.230957136129E+04   -0.15047E-04   -0.87175E-04  4592   0.320E-02    0.118E-02
RMM:   2    -0.230957136704E+04   -0.57430E-05   -0.65405E-05  3176   0.698E-03
 265 F= -.23300541E+04 E0= -.23300541E+04  d E =-.120313E-04  mag=     2.0000
       N       E                     dE             d eps       ncg     rms          rms(c)
DAV:   1    -0.230957137322E+04   -0.11931E-04   -0.14250E-03  4392   0.408E-02    0.152E-02
RMM:   2    -0.230957138539E+04   -0.12168E-04   -0.11465E-04  3667   0.976E-03    0.173E-02
RMM:   3    -0.230957138310E+04    0.22909E-05   -0.15677E-05  2655   0.517E-03
 266 F= -.23300542E+04 E0= -.23300542E+04  d E =-.216895E-04  mag=     2.0000
       N       E                     dE             d eps       ncg     rms          rms(c)
DAV:   1    -0.230957138362E+04    0.17731E-05   -0.29270E-04  4960   0.185E-02    0.689E-03
RMM:   2    -0.230957138535E+04   -0.17322E-05   -0.21606E-05  2568   0.432E-03
 267 F= -.23300542E+04 E0= -.23300542E+04  d E =-.209971E-04  mag=     2.0000
       N       E                     dE             d eps       ncg     rms          rms(c)
DAV:   1    -0.230957138464E+04   -0.10238E-05   -0.15070E-03  4336   0.416E-02    0.123E-02
RMM:   2    -0.230957139548E+04   -0.10841E-04   -0.11712E-04  3654   0.932E-03    0.834E-03
RMM:   3    -0.230957139641E+04   -0.92381E-06   -0.13877E-05  2350   0.482E-03
 268 F= -.23300542E+04 E0= -.23300542E+04  d E =-.126493E-04  mag=     2.0000
       N       E                     dE             d eps       ncg     rms          rms(c)
DAV:   1    -0.230957139088E+04    0.46089E-05   -0.92497E-04  4304   0.325E-02    0.101E-02
RMM:   2    -0.230957139696E+04   -0.60816E-05   -0.70207E-05  3215   0.703E-03
 269 F= -.23300542E+04 E0= -.23300542E+04  d E =-.144512E-04  mag=     2.0000
       N       E                     dE             d eps       ncg     rms          rms(c)
DAV:   1    -0.230957140009E+04   -0.92178E-05   -0.13217E-03  4392   0.395E-02    0.134E-02
RMM:   2    -0.230957141034E+04   -0.10244E-04   -0.10961E-04  3663   0.928E-03    0.991E-03
RMM:   3    -0.230957141095E+04   -0.61790E-06   -0.13764E-05  2646   0.502E-03
 270 F= -.23300542E+04 E0= -.23300542E+04  d E =-.163280E-04  mag=     2.0000
       N       E                     dE             d eps       ncg     rms          rms(c)
DAV:   1    -0.230957140806E+04    0.22811E-05   -0.36469E-04  4848   0.208E-02    0.761E-03
RMM:   2    -0.230957141046E+04   -0.24000E-05   -0.29152E-05  2704   0.486E-03
 271 F= -.23300542E+04 E0= -.23300542E+04  d E =-.170590E-04  mag=     2.0000
       N       E                     dE             d eps       ncg     rms          rms(c)
DAV:   1    -0.230957140692E+04    0.11323E-05   -0.13295E-03  4336   0.396E-02    0.136E-02
RMM:   2    -0.230957141814E+04   -0.11219E-04   -0.11264E-04  3715   0.958E-03    0.133E-02
RMM:   3    -0.230957141751E+04    0.62966E-06   -0.15004E-05  2430   0.502E-03
 272 F= -.23300542E+04 E0= -.23300542E+04  d E =-.974598E-05  mag=     2.0000
       N       E                     dE             d eps       ncg     rms          rms(c)
DAV:   1    -0.230957141662E+04    0.15197E-05   -0.45164E-06  3432   0.322E-03    0.339E-03
RMM:   2    -0.230957141661E+04    0.11583E-07   -0.11833E-06  2208   0.193E-03
 273 F= -.23300542E+04 E0= -.23300542E+04  d E =-.896821E-05  mag=     2.0000
       N       E                     dE             d eps       ncg     rms          rms(c)
DAV:   1    -0.230957141382E+04    0.28032E-05   -0.13130E-03  4360   0.391E-02    0.122E-02
RMM:   2    -0.230957142351E+04   -0.96913E-05   -0.10887E-04  3619   0.797E-03    0.552E-03
RMM:   3    -0.230957142415E+04   -0.63636E-06   -0.12137E-05  2338   0.434E-03
 274 F= -.23300542E+04 E0= -.23300542E+04  d E =-.930317E-05  mag=     2.0000
       N       E                     dE             d eps       ncg     rms          rms(c)
DAV:   1    -0.230957142279E+04    0.71648E-06   -0.14008E-04  5104   0.129E-02    0.582E-03
RMM:   2    -0.230957142431E+04   -0.15160E-05   -0.14262E-05  2434   0.313E-03
 275 F= -.23300542E+04 E0= -.23300542E+04  d E =-.100524E-04  mag=     2.0000
       N       E                     dE             d eps       ncg     rms          rms(c)
DAV:   1    -0.230957141594E+04    0.68581E-05   -0.12871E-03  4360   0.385E-02    0.121E-02
RMM:   2    -0.230957142589E+04   -0.99546E-05   -0.11206E-04  3610   0.851E-03    0.639E-03
RMM:   3    -0.230957142662E+04   -0.73051E-06   -0.13917E-05  2402   0.493E-03
 276 F= -.23300542E+04 E0= -.23300542E+04  d E =-.941566E-05  mag=     2.0000
       N       E                     dE             d eps       ncg     rms          rms(c)
DAV:   1    -0.230957142547E+04    0.41752E-06   -0.26534E-05  4304   0.588E-03    0.535E-03
RMM:   2    -0.230957142703E+04   -0.15612E-05   -0.70893E-06  2328   0.254E-03
 277 F= -.23300542E+04 E0= -.23300542E+04  d E =-.108673E-04  mag=     2.0000
       N       E                     dE             d eps       ncg     rms          rms(c)
DAV:   1    -0.230957141183E+04    0.13648E-04   -0.12549E-03  4336   0.375E-02    0.114E-02
RMM:   2    -0.230957142221E+04   -0.10385E-04   -0.11540E-04  3595   0.797E-03    0.614E-03
RMM:   3    -0.230957142290E+04   -0.69189E-06   -0.12447E-05  2321   0.443E-03
 278 F= -.23300542E+04 E0= -.23300542E+04  d E =-.663638E-05  mag=     2.0000
       N       E                     dE             d eps       ncg     rms          rms(c)
DAV:   1    -0.230957142249E+04   -0.28184E-06   -0.43120E-06  3192   0.255E-03    0.469E-03
RMM:   2    -0.230957142335E+04   -0.86299E-06   -0.29738E-06  2217   0.181E-03
 279 F= -.23300542E+04 E0= -.23300542E+04  d E =-.755279E-05  mag=     2.0000
       N       E                     dE             d eps       ncg     rms          rms(c)
DAV:   1    -0.230957141877E+04    0.37262E-05   -0.11705E-03  4328   0.367E-02    0.118E-02
RMM:   2    -0.230957142770E+04   -0.89348E-05   -0.10070E-04  3487   0.765E-03    0.623E-03
RMM:   3    -0.230957142830E+04   -0.59948E-06   -0.11396E-05  2356   0.422E-03
 280 F= -.23300542E+04 E0= -.23300542E+04  d E =-.840936E-05  mag=     2.0000
       N       E                     dE             d eps       ncg     rms          rms(c)
DAV:   1    -0.230957142734E+04    0.35929E-06   -0.23209E-05  4248   0.548E-03    0.430E-03
RMM:   2    -0.230957142782E+04   -0.47483E-06   -0.37871E-06  2256   0.218E-03
 281 F= -.23300542E+04 E0= -.23300542E+04  d E =-.842002E-05  mag=     2.0000
       N       E                     dE             d eps       ncg     rms          rms(c)
DAV:   1    -0.230957142202E+04    0.53205E-05   -0.11605E-03  4328   0.366E-02    0.117E-02
RMM:   2    -0.230957143087E+04   -0.88525E-05   -0.10002E-04  3508   0.784E-03    0.598E-03
RMM:   3    -0.230957143131E+04   -0.43711E-06   -0.11458E-05  2319   0.462E-03
 282 F= -.23300542E+04 E0= -.23300542E+04  d E =-.671035E-05  mag=     2.0000
       N       E                     dE             d eps       ncg     rms          rms(c)
DAV:   1    -0.230957143161E+04   -0.73988E-06   -0.10017E-05  3112   0.363E-03    0.253E-03
RMM:   2    -0.230957143185E+04   -0.23824E-06   -0.15745E-06  2134   0.184E-03
 283 F= -.23300542E+04 E0= -.23300542E+04  d E =-.701104E-05  mag=     2.0000
       N       E                     dE             d eps       ncg     rms          rms(c)
DAV:   1    -0.230957142452E+04    0.70921E-05   -0.11753E-03  4312   0.368E-02    0.110E-02
RMM:   2    -0.230957143269E+04   -0.81703E-05   -0.91251E-05  3432   0.754E-03
 284 F= -.23300543E+04 E0= -.23300543E+04  d E =-.806002E-05  mag=     2.0000
       N       E                     dE             d eps       ncg     rms          rms(c)
DAV:   1    -0.230957143247E+04   -0.79515E-05   -0.18500E-05  3680   0.603E-03    0.417E-03
RMM:   2    -0.230957143305E+04   -0.58219E-06   -0.42454E-06  2255   0.271E-03
 285 F= -.23300543E+04 E0= -.23300543E+04  d E =-.909004E-05  mag=     2.0000
       N       E                     dE             d eps       ncg     rms          rms(c)
DAV:   1    -0.230957142572E+04    0.67530E-05   -0.71706E-04  4280   0.285E-02    0.977E-03
RMM:   2    -0.230957143135E+04   -0.56323E-05   -0.65330E-05  2962   0.653E-03
 286 F= -.23300543E+04 E0= -.23300543E+04  d E =-.600598E-05  mag=     2.0000
       N       E                     dE             d eps       ncg     rms          rms(c)
DAV:   1    -0.230957143227E+04   -0.65556E-05   -0.10925E-05  3072   0.486E-03    0.593E-03
RMM:   2    -0.230957143380E+04   -0.15273E-05   -0.57687E-06  2210   0.215E-03
 287 F= -.23300543E+04 E0= -.23300543E+04  d E =-.808706E-05  mag=     2.0000
       N       E                     dE             d eps       ncg     rms          rms(c)
DAV:   1    -0.230957143201E+04    0.26822E-06   -0.65900E-04  4256   0.280E-02    0.896E-03
RMM:   2    -0.230957143625E+04   -0.42408E-05   -0.48733E-05  2806   0.618E-03
 288 F= -.23300543E+04 E0= -.23300543E+04  d E =-.481892E-05  mag=     2.0000
       N       E                     dE             d eps       ncg     rms          rms(c)
DAV:   1    -0.230957143611E+04   -0.41052E-05   -0.94018E-06  3168   0.479E-03    0.267E-03
RMM:   2    -0.230957143627E+04   -0.16030E-06   -0.20896E-06  2205   0.237E-03
 289 F= -.23300543E+04 E0= -.23300543E+04  d E =-.505533E-05  mag=     2.0000
       N       E                     dE             d eps       ncg     rms          rms(c)
DAV:   1    -0.230957143005E+04    0.60573E-05   -0.46497E-04  4144   0.228E-02    0.740E-03
RMM:   2    -0.230957143400E+04   -0.39459E-05   -0.43226E-05  2614   0.532E-03
 290 F= -.23300543E+04 E0= -.23300543E+04  d E =-.501786E-05  mag=     2.0000
       N       E                     dE             d eps       ncg     rms          rms(c)
DAV:   1    -0.230957143184E+04   -0.17879E-05   -0.49877E-05  4168   0.807E-03    0.581E-03
RMM:   2    -0.230957143354E+04   -0.16947E-05   -0.92591E-06  2297   0.285E-03
 291 F= -.23300543E+04 E0= -.23300543E+04  d E =-.680777E-05  mag=     2.0000
       N       E                     dE             d eps       ncg     rms          rms(c)
DAV:   1    -0.230957143127E+04    0.57579E-06   -0.43596E-04  4160   0.222E-02    0.754E-03
RMM:   2    -0.230957143503E+04   -0.37621E-05   -0.43180E-05  2657   0.526E-03
 292 F= -.23300543E+04 E0= -.23300543E+04  d E =-.512118E-05  mag=     2.0000
       N       E                     dE             d eps       ncg     rms          rms(c)
DAV:   1    -0.230957143453E+04   -0.32669E-05   -0.17080E-05  3184   0.553E-03    0.284E-03
RMM:   2    -0.230957143487E+04   -0.33950E-06   -0.38742E-06  2231   0.300E-03
 293 F= -.23300543E+04 E0= -.23300543E+04  d E =-.562599E-05  mag=     2.0000
       N       E                     dE             d eps       ncg     rms          rms(c)
DAV:   1    -0.230957143323E+04    0.13057E-05   -0.27288E-04  4096   0.170E-02    0.624E-03
RMM:   2    -0.230957143614E+04   -0.29135E-05   -0.32250E-05  2496   0.429E-03
 294 F= -.23300543E+04 E0= -.23300543E+04  d E =-.614320E-05  mag=     2.0000
       N       E                     dE             d eps       ncg     rms          rms(c)
DAV:   1    -0.230957143530E+04   -0.20737E-05   -0.14893E-05  2600   0.499E-03    0.441E-03
RMM:   2    -0.230957143633E+04   -0.10316E-05   -0.56045E-06  2225   0.308E-03
 295 F= -.23300543E+04 E0= -.23300543E+04  d E =-.737054E-05  mag=     2.0000
       N       E                     dE             d eps       ncg     rms          rms(c)
DAV:   1    -0.230957143515E+04    0.15373E-06   -0.23294E-04  4160   0.156E-02    0.596E-03
RMM:   2    -0.230957143771E+04   -0.25660E-05   -0.29356E-05  2509   0.406E-03
 296 F= -.23300543E+04 E0= -.23300543E+04  d E =-.287891E-05  mag=     2.0000
       N       E                     dE             d eps       ncg     rms          rms(c)
DAV:   1    -0.230957143776E+04   -0.26131E-05   -0.49534E-06  2560   0.336E-03    0.233E-03
RMM:   2    -0.230957143785E+04   -0.88068E-07   -0.96003E-07  2150   0.128E-03
 297 F= -.23300543E+04 E0= -.23300543E+04  d E =-.312668E-05  mag=     2.0000
       N       E                     dE             d eps       ncg     rms          rms(c)
DAV:   1    -0.230957143694E+04    0.81953E-06   -0.20764E-04  4072   0.146E-02    0.527E-03
RMM:   2    -0.230957143926E+04   -0.23139E-05   -0.26373E-05  2438   0.370E-03
 298 F= -.23300543E+04 E0= -.23300543E+04  d E =-.368017E-05  mag=     2.0000
       N       E                     dE             d eps       ncg     rms          rms(c)
DAV:   1    -0.230957143897E+04   -0.20298E-05   -0.10700E-05  2544   0.406E-03    0.384E-03
RMM:   2    -0.230957143979E+04   -0.81668E-06   -0.40714E-06  2223   0.241E-03
 299 F= -.23300543E+04 E0= -.23300543E+04  d E =-.465315E-05  mag=     2.0000
       N       E                     dE             d eps       ncg     rms          rms(c)
DAV:   1    -0.230957143558E+04    0.33950E-05   -0.19860E-04  4080   0.138E-02    0.505E-03
RMM:   2    -0.230957143801E+04   -0.24340E-05   -0.27441E-05  2435   0.346E-03
 300 F= -.23300543E+04 E0= -.23300543E+04  d E =-.338385E-05  mag=     2.0000
       N       E                     dE             d eps       ncg     rms          rms(c)
DAV:   1    -0.230957143414E+04    0.14361E-05   -0.89056E-05  4224   0.947E-03    0.406E-03
RMM:   2    -0.230957143549E+04   -0.13503E-05   -0.15024E-05  2332   0.275E-03
 301 F= -.23300543E+04 E0= -.23300543E+04  d E =-.435512E-05  mag=     2.0000
