       N       E                     dE             d eps       ncg     rms          rms(c)
DAV:   1     0.126974893765E+05    0.12697E+05   -0.82799E+05  4432   0.143E+03
DAV:   2    -0.106696393188E+04   -0.13764E+05   -0.13186E+05  5320   0.329E+02
DAV:   3    -0.247096758276E+04   -0.14040E+04   -0.13910E+04  5360   0.111E+02
DAV:   4    -0.251726781645E+04   -0.46300E+02   -0.46084E+02  6648   0.300E+01
DAV:   5    -0.251815612702E+04   -0.88831E+00   -0.88698E+00  5608   0.331E+00    0.171E+02
RMM:   6    -0.148348763074E+04    0.10347E+04   -0.19671E+03  4391   0.391E+01    0.752E+01
RMM:   7    -0.165944648792E+04   -0.17596E+03   -0.30943E+02  5090   0.145E+01    0.594E+01
RMM:   8    -0.168438574745E+04   -0.24939E+02   -0.79986E+01  5228   0.857E+00    0.395E+01
RMM:   9    -0.179233367424E+04   -0.10795E+03   -0.50806E+01  4707   0.744E+00    0.314E+01
RMM:  10    -0.192097211643E+04   -0.12864E+03   -0.53523E+01  4987   0.717E+00    0.267E+01
RMM:  11    -0.199177957595E+04   -0.70807E+02   -0.31031E+01  5166   0.484E+00    0.172E+01
RMM:  12    -0.208731944981E+04   -0.95540E+02   -0.44056E+01  4781   0.515E+00    0.131E+01
RMM:  13    -0.219228303533E+04   -0.10496E+03   -0.70343E+01  4527   0.629E+00    0.900E+00
RMM:  14    -0.227673050316E+04   -0.84447E+02   -0.76957E+01  4570   0.612E+00    0.536E+00
RMM:  15    -0.229905458979E+04   -0.22324E+02   -0.21964E+01  4638   0.376E+00    0.512E+00
RMM:  16    -0.230105689269E+04   -0.20023E+01   -0.37611E+00  5475   0.144E+00    0.463E+00
RMM:  17    -0.230475653552E+04   -0.36996E+01   -0.26604E+00  4434   0.104E+00    0.289E+00
RMM:  18    -0.230840301486E+04   -0.36465E+01   -0.24576E+00  4439   0.102E+00    0.199E+00
RMM:  19    -0.230980755809E+04   -0.14045E+01   -0.10597E+00  4615   0.678E-01    0.106E+00
RMM:  20    -0.231004578726E+04   -0.23823E+00   -0.28321E-01  4693   0.346E-01    0.644E-01
RMM:  21    -0.231014132099E+04   -0.95534E-01   -0.12129E-01  4646   0.194E-01    0.465E-01
RMM:  22    -0.231017324794E+04   -0.31927E-01   -0.22726E-02  4631   0.128E-01    0.296E-01
RMM:  23    -0.231020448375E+04   -0.31236E-01   -0.11379E-02  4487   0.794E-02    0.161E-01
RMM:  24    -0.231022375208E+04   -0.19268E-01   -0.72248E-03  4592   0.681E-02    0.887E-02
RMM:  25    -0.231023397087E+04   -0.10219E-01   -0.29103E-03  4633   0.469E-02    0.657E-02
RMM:  26    -0.231024334666E+04   -0.93758E-02   -0.21602E-03  4399   0.367E-02    0.441E-02
RMM:  27    -0.231024881008E+04   -0.54634E-02   -0.13602E-03  4420   0.293E-02    0.261E-02
RMM:  28    -0.231025086200E+04   -0.20519E-02   -0.68560E-04  4183   0.217E-02    0.132E-02
RMM:  29    -0.231025151301E+04   -0.65101E-03   -0.24272E-04  3956   0.128E-02    0.690E-03
RMM:  30    -0.231025170120E+04   -0.18819E-03   -0.78294E-05  3595   0.860E-03    0.409E-03
RMM:  31    -0.231025177296E+04   -0.71763E-04   -0.31458E-05  3245   0.569E-03    0.211E-03
RMM:  32    -0.231025179892E+04   -0.25954E-04   -0.12541E-05  2907   0.388E-03    0.130E-03
RMM:  33    -0.231025180784E+04   -0.89252E-05   -0.56828E-06  2654   0.274E-03
   1 F= -.23308008E+04 E0= -.23308008E+04  d E =-.233080E+04  mag=     3.0000
       N       E                     dE             d eps       ncg     rms          rms(c)
DAV:   1    -0.230958217342E+04    0.66963E+00   -0.72137E+01  4784   0.668E+00    0.273E+00
RMM:   2    -0.231112303222E+04   -0.15409E+01   -0.15355E+01  6576   0.223E+00    0.301E+00
RMM:   3    -0.231109592791E+04    0.27104E-01   -0.13986E+00  5142   0.621E-01    0.177E+00
RMM:   4    -0.231106991642E+04    0.26011E-01   -0.13592E-01  5535   0.148E-01    0.111E+00
RMM:   5    -0.231105652595E+04    0.13390E-01   -0.60796E-02  5705   0.105E-01    0.620E-01
RMM:   6    -0.231105147282E+04    0.50531E-02   -0.22045E-02  5780   0.831E-02    0.268E-01
RMM:   7    -0.231105055777E+04    0.91505E-03   -0.31972E-03  4737   0.398E-02    0.129E-01
RMM:   8    -0.231105075889E+04   -0.20113E-03   -0.16230E-03  4803   0.177E-02    0.550E-02
RMM:   9    -0.231105083583E+04   -0.76934E-04   -0.17534E-04  3647   0.113E-02    0.340E-02
RMM:  10    -0.231105095933E+04   -0.12350E-03   -0.14259E-04  3880   0.722E-03    0.183E-02
RMM:  11    -0.231105102764E+04   -0.68309E-04   -0.28536E-05  2925   0.572E-03    0.103E-02
RMM:  12    -0.231105108928E+04   -0.61644E-04   -0.21878E-05  2922   0.407E-03    0.660E-03
RMM:  13    -0.231105112403E+04   -0.34747E-04   -0.10864E-05  2830   0.397E-03    0.451E-03
RMM:  14    -0.231105114020E+04   -0.16175E-04   -0.74387E-06  2816   0.308E-03    0.268E-03
RMM:  15    -0.231105114728E+04   -0.70719E-05   -0.39826E-06  2729   0.265E-03
   2 F= -.23315974E+04 E0= -.23315974E+04  d E =-.796605E+00  mag=     3.0000
       N       E                     dE             d eps       ncg     rms          rms(c)
DAV:   1    -0.231101689713E+04    0.34243E-01   -0.33923E+00  4704   0.149E+00    0.582E-01
RMM:   2    -0.231108120589E+04   -0.64309E-01   -0.65881E-01  6519   0.452E-01    0.474E-01
RMM:   3    -0.231108399828E+04   -0.27924E-02   -0.62421E-02  5789   0.124E-01    0.357E-01
RMM:   4    -0.231108327973E+04    0.71855E-03   -0.64775E-03  5203   0.299E-02    0.245E-01
RMM:   5    -0.231108243712E+04    0.84262E-03   -0.22785E-03  5379   0.229E-02    0.890E-02
RMM:   6    -0.231108239986E+04    0.37253E-04   -0.39519E-04  4251   0.145E-02    0.384E-02
RMM:   7    -0.231108239718E+04    0.26882E-05   -0.86015E-05  3433   0.652E-03
   3 F= -.23316281E+04 E0= -.23316281E+04  d E =-.827277E+00  mag=     3.0000
       N       E                     dE             d eps       ncg     rms          rms(c)
DAV:   1    -0.231086868416E+04    0.21372E+00   -0.32045E+01  4496   0.482E+00    0.213E+00
RMM:   2    -0.231140628789E+04   -0.53760E+00   -0.54954E+00  6264   0.112E+00    0.170E+00
RMM:   3    -0.231139183048E+04    0.14457E-01   -0.51167E-01  5714   0.360E-01    0.101E+00
RMM:   4    -0.231138771313E+04    0.41174E-02   -0.61679E-02  5730   0.102E-01    0.633E-01
RMM:   5    -0.231138459470E+04    0.31184E-02   -0.12057E-02  5370   0.557E-02    0.443E-01
RMM:   6    -0.231138285397E+04    0.17407E-02   -0.76833E-03  5541   0.495E-02    0.196E-01
RMM:   7    -0.231138249186E+04    0.36211E-03   -0.11546E-03  5159   0.250E-02    0.706E-02
RMM:   8    -0.231138249382E+04   -0.19664E-05   -0.26316E-04  3922   0.105E-02    0.354E-02
RMM:   9    -0.231138249201E+04    0.18158E-05   -0.52461E-05  2933   0.625E-03
   4 F= -.23319263E+04 E0= -.23319262E+04  d E =-.298182E+00  mag=     2.9987
       N       E                     dE             d eps       ncg     rms          rms(c)
DAV:   1    -0.231135203336E+04    0.30460E-01   -0.32537E+00  4680   0.155E+00    0.678E-01
RMM:   2    -0.231140446442E+04   -0.52431E-01   -0.54064E-01  6256   0.348E-01    0.511E-01
RMM:   3    -0.231140419514E+04    0.26928E-03   -0.49663E-02  5693   0.114E-01    0.290E-01
RMM:   4    -0.231140382932E+04    0.36582E-03   -0.59471E-03  5335   0.296E-02    0.206E-01
RMM:   5    -0.231140360577E+04    0.22355E-03   -0.14290E-03  5058   0.201E-02    0.160E-01
RMM:   6    -0.231140334037E+04    0.26541E-03   -0.74497E-04  5081   0.165E-02    0.622E-02
RMM:   7    -0.231140330775E+04    0.32615E-04   -0.10463E-04  3504   0.846E-03    0.195E-02
RMM:   8    -0.231140331150E+04   -0.37471E-05   -0.23705E-05  2888   0.430E-03
   5 F= -.23319466E+04 E0= -.23319462E+04  d E =-.318489E+00  mag=     2.9938
       N       E                     dE             d eps       ncg     rms          rms(c)
DAV:   1    -0.231127839791E+04    0.12491E+00   -0.14319E+01  4464   0.366E+00    0.145E+00
RMM:   2    -0.231154193475E+04   -0.26354E+00   -0.25890E+00  6420   0.931E-01    0.167E+00
RMM:   3    -0.231152813969E+04    0.13795E-01   -0.24016E-01  5770   0.256E-01    0.790E-01
RMM:   4    -0.231152370076E+04    0.44389E-02   -0.25709E-02  5580   0.662E-02    0.344E-01
RMM:   5    -0.231152241868E+04    0.12821E-02   -0.45373E-03  4988   0.434E-02    0.183E-01
RMM:   6    -0.231152221427E+04    0.20440E-03   -0.16099E-03  4933   0.302E-02    0.604E-02
RMM:   7    -0.231152220507E+04    0.92007E-05   -0.30677E-04  4128   0.123E-02    0.417E-02
RMM:   8    -0.231152218605E+04    0.19018E-04   -0.71102E-05  3159   0.675E-03    0.210E-02
RMM:   9    -0.231152218625E+04   -0.20037E-06   -0.30320E-05  3003   0.458E-03
   6 F= -.23320648E+04 E0= -.23320647E+04  d E =-.118185E+00  mag=     2.9974
       N       E                     dE             d eps       ncg     rms          rms(c)
DAV:   1    -0.231135511277E+04    0.16707E+00   -0.11747E+01  4496   0.329E+00    0.133E+00
RMM:   2    -0.231157542821E+04   -0.22032E+00   -0.21419E+00  6422   0.851E-01    0.156E+00
RMM:   3    -0.231156325686E+04    0.12171E-01   -0.19107E-01  5757   0.229E-01    0.766E-01
RMM:   4    -0.231155886618E+04    0.43907E-02   -0.21639E-02  5484   0.605E-02    0.343E-01
RMM:   5    -0.231155761116E+04    0.12550E-02   -0.45139E-03  5121   0.428E-02    0.197E-01
RMM:   6    -0.231155730818E+04    0.30299E-03   -0.19402E-03  5375   0.289E-02    0.942E-02
RMM:   7    -0.231155719963E+04    0.10855E-03   -0.36277E-04  4280   0.128E-02    0.481E-02
RMM:   8    -0.231155717531E+04    0.24313E-04   -0.73452E-05  3158   0.662E-03    0.210E-02
RMM:   9    -0.231155717235E+04    0.29594E-05   -0.37741E-05  3008   0.496E-03
   7 F= -.23320991E+04 E0= -.23320991E+04  d E =-.152557E+00  mag=     2.9994
       N       E                     dE             d eps       ncg     rms          rms(c)
DAV:   1    -0.231150744314E+04    0.49732E-01   -0.10115E+01  4464   0.304E+00    0.114E+00
RMM:   2    -0.231165594989E+04   -0.14851E+00   -0.14429E+00  6442   0.785E-01    0.141E+00
RMM:   3    -0.231164201796E+04    0.13932E-01   -0.12094E-01  5934   0.198E-01    0.641E-01
RMM:   4    -0.231163899943E+04    0.30185E-02   -0.15740E-02  5671   0.537E-02    0.336E-01
RMM:   5    -0.231163796007E+04    0.10394E-02   -0.31970E-03  5513   0.322E-02    0.214E-01
RMM:   6    -0.231163732655E+04    0.63352E-03   -0.20555E-03  4944   0.291E-02    0.931E-02
RMM:   7    -0.231163725886E+04    0.67691E-04   -0.32849E-04  4291   0.176E-02    0.391E-02
RMM:   8    -0.231163724790E+04    0.10955E-04   -0.75092E-05  3327   0.552E-03    0.183E-02
RMM:   9    -0.231163724445E+04    0.34506E-05   -0.23862E-05  2882   0.453E-03
   8 F= -.23321793E+04 E0= -.23321793E+04  d E =-.801759E-01  mag=     2.9999
       N       E                     dE             d eps       ncg     rms          rms(c)
DAV:   1    -0.231152699086E+04    0.11026E+00   -0.10773E+01  4416   0.315E+00    0.117E+00
RMM:   2    -0.231168641727E+04   -0.15943E+00   -0.15598E+00  6430   0.828E-01    0.144E+00
RMM:   3    -0.231167156177E+04    0.14855E-01   -0.12632E-01  5900   0.211E-01    0.662E-01
RMM:   4    -0.231166810840E+04    0.34534E-02   -0.16487E-02  5711   0.563E-02    0.336E-01
RMM:   5    -0.231166703603E+04    0.10724E-02   -0.32474E-03  5552   0.330E-02    0.213E-01
RMM:   6    -0.231166643714E+04    0.59889E-03   -0.22191E-03  5017   0.304E-02    0.912E-02
RMM:   7    -0.231166638358E+04    0.53560E-04   -0.34354E-04  4440   0.176E-02    0.413E-02
RMM:   8    -0.231166636994E+04    0.13648E-04   -0.73150E-05  3322   0.573E-03    0.191E-02
RMM:   9    -0.231166636312E+04    0.68187E-05   -0.28561E-05  2916   0.475E-03
   9 F= -.23322085E+04 E0= -.23322085E+04  d E =-.109344E+00  mag=     3.0000
       N       E                     dE             d eps       ncg     rms          rms(c)
DAV:   1    -0.231159111568E+04    0.75254E-01   -0.11807E+01  4408   0.345E+00    0.114E+00
RMM:   2    -0.231176920964E+04   -0.17809E+00   -0.17152E+00  6449   0.860E-01    0.148E+00
RMM:   3    -0.231175738126E+04    0.11828E-01   -0.15588E-01  5850   0.221E-01    0.642E-01
RMM:   4    -0.231175365142E+04    0.37298E-02   -0.16683E-02  5248   0.559E-02    0.305E-01
RMM:   5    -0.231175317127E+04    0.48015E-03   -0.42339E-03  5359   0.371E-02    0.211E-01
RMM:   6    -0.231175273346E+04    0.43781E-03   -0.17840E-03  5304   0.280E-02    0.865E-02
RMM:   7    -0.231175273264E+04    0.81789E-06   -0.26956E-04  3850   0.132E-02    0.399E-02
RMM:   8    -0.231175273447E+04   -0.18311E-05   -0.57833E-05  3125   0.561E-03
  10 F= -.23322953E+04 E0= -.23322953E+04  d E =-.868277E-01  mag=     3.0000
       N       E                     dE             d eps       ncg     rms          rms(c)
DAV:   1    -0.231137919223E+04    0.37354E+00   -0.30711E+01  4408   0.560E+00    0.178E+00
RMM:   2    -0.231183655877E+04   -0.45737E+00   -0.44130E+00  6403   0.132E+00    0.239E+00
RMM:   3    -0.231181580510E+04    0.20754E-01   -0.43749E-01  5816   0.364E-01    0.107E+00
RMM:   4    -0.231180486753E+04    0.10938E-01   -0.41478E-02  5269   0.883E-02    0.465E-01
RMM:   5    -0.231180332764E+04    0.15399E-02   -0.94359E-03  5187   0.609E-02    0.299E-01
RMM:   6    -0.231180272548E+04    0.60216E-03   -0.37375E-03  5498   0.399E-02    0.135E-01
RMM:   7    -0.231180280206E+04   -0.76584E-04   -0.64450E-04  4428   0.183E-02    0.619E-02
RMM:   8    -0.231180283357E+04   -0.31510E-04   -0.13034E-04  3597   0.894E-03    0.278E-02
RMM:   9    -0.231180284080E+04   -0.72287E-05   -0.49013E-05  3121   0.594E-03
  11 F= -.23323462E+04 E0= -.23323462E+04  d E =-.137738E+00  mag=     3.0000
       N       E                     dE             d eps       ncg     rms          rms(c)
DAV:   1    -0.231180195580E+04    0.87777E-03   -0.14291E+01  4408   0.377E+00    0.108E+00
RMM:   2    -0.231189411474E+04   -0.92159E-01   -0.91376E-01  6023   0.778E-01    0.117E+00
RMM:   3    -0.231188366244E+04    0.10452E-01   -0.75868E-02  5944   0.205E-01    0.642E-01
RMM:   4    -0.231187884075E+04    0.48217E-02   -0.10436E-02  5321   0.589E-02    0.314E-01
RMM:   5    -0.231187757075E+04    0.12700E-02   -0.28929E-03  5357   0.392E-02    0.173E-01
RMM:   6    -0.231187707445E+04    0.49630E-03   -0.24083E-03  5064   0.352E-02    0.501E-02
RMM:   7    -0.231187703235E+04    0.42105E-04   -0.22750E-04  4636   0.193E-02    0.260E-02
RMM:   8    -0.231187701795E+04    0.14394E-04   -0.46103E-05  3303   0.562E-03    0.126E-02
RMM:   9    -0.231187701306E+04    0.48869E-05   -0.16032E-05  2871   0.446E-03
  12 F= -.23324199E+04 E0= -.23324199E+04  d E =-.737030E-01  mag=     3.0000
       N       E                     dE             d eps       ncg     rms          rms(c)
DAV:   1    -0.231185963487E+04    0.17383E-01   -0.59954E+00  4480   0.245E+00    0.704E-01
RMM:   2    -0.231189899557E+04   -0.39361E-01   -0.38935E-01  6045   0.506E-01    0.783E-01
RMM:   3    -0.231189368947E+04    0.53061E-02   -0.30167E-02  5888   0.130E-01    0.410E-01
RMM:   4    -0.231189173353E+04    0.19559E-02   -0.44522E-03  5273   0.381E-02    0.201E-01
RMM:   5    -0.231189118468E+04    0.54885E-03   -0.11759E-03  5220   0.256E-02    0.110E-01
RMM:   6    -0.231189097471E+04    0.20997E-03   -0.99127E-04  5057   0.228E-02    0.321E-02
RMM:   7    -0.231189095488E+04    0.19822E-04   -0.94114E-05  4039   0.124E-02    0.170E-02
RMM:   8    -0.231189094757E+04    0.73176E-05   -0.21724E-05  2959   0.410E-03
  13 F= -.23324335E+04 E0= -.23324335E+04  d E =-.872949E-01  mag=     3.0000
       N       E                     dE             d eps       ncg     rms          rms(c)
DAV:   1    -0.231192814994E+04   -0.37195E-01   -0.79129E+00  4408   0.276E+00    0.784E-01
RMM:   2    -0.231195457468E+04   -0.26425E-01   -0.28357E-01  5340   0.514E-01    0.599E-01
RMM:   3    -0.231195326526E+04    0.13094E-02   -0.27636E-02  5683   0.151E-01    0.550E-01
RMM:   4    -0.231194941530E+04    0.38500E-02   -0.46172E-03  5258   0.486E-02    0.213E-01
RMM:   5    -0.231194894339E+04    0.47191E-03   -0.22834E-03  5053   0.379E-02    0.115E-01
RMM:   6    -0.231194874846E+04    0.19493E-03   -0.95511E-04  5277   0.242E-02    0.366E-02
RMM:   7    -0.231194871777E+04    0.30685E-04   -0.10069E-04  3960   0.109E-02    0.199E-02
RMM:   8    -0.231194870992E+04    0.78501E-05   -0.31683E-05  3087   0.562E-03
  14 F= -.23324905E+04 E0= -.23324905E+04  d E =-.570117E-01  mag=     3.0000
       N       E                     dE             d eps       ncg     rms          rms(c)
DAV:   1    -0.231195131593E+04   -0.25982E-02   -0.22520E+00  4512   0.148E+00    0.419E-01
RMM:   2    -0.231195882510E+04   -0.75092E-02   -0.80760E-02  5378   0.275E-01    0.327E-01
RMM:   3    -0.231195833146E+04    0.49364E-03   -0.78789E-03  5693   0.831E-02    0.289E-01
RMM:   4    -0.231195725430E+04    0.10772E-02   -0.13141E-03  5114   0.259E-02    0.112E-01
RMM:   5    -0.231195711641E+04    0.13789E-03   -0.66240E-04  5005   0.208E-02    0.602E-02
RMM:   6    -0.231195705832E+04    0.58089E-04   -0.25809E-04  4733   0.127E-02    0.195E-02
RMM:   7    -0.231195704880E+04    0.95221E-05   -0.28892E-05  3020   0.655E-03
  15 F= -.23324984E+04 E0= -.23324984E+04  d E =-.649372E-01  mag=     3.0000
       N       E                     dE             d eps       ncg     rms          rms(c)
DAV:   1    -0.231196705506E+04   -0.99967E-02   -0.83061E+00  4408   0.284E+00    0.705E-01
RMM:   2    -0.231201325892E+04   -0.46204E-01   -0.45624E-01  6118   0.540E-01    0.675E-01
RMM:   3    -0.231201118647E+04    0.20724E-02   -0.36555E-02  5554   0.133E-01    0.449E-01
RMM:   4    -0.231200880611E+04    0.23804E-02   -0.45531E-03  4868   0.398E-02    0.201E-01
RMM:   5    -0.231200834272E+04    0.46339E-03   -0.22641E-03  5016   0.337E-02    0.976E-02
RMM:   6    -0.231200823766E+04    0.10506E-03   -0.63298E-04  5106   0.201E-02    0.399E-02
RMM:   7    -0.231200823409E+04    0.35739E-05   -0.73462E-05  3315   0.675E-03
  16 F= -.23325491E+04 E0= -.23325491E+04  d E =-.506213E-01  mag=     3.0000
       N       E                     dE             d eps       ncg     rms          rms(c)
DAV:   1    -0.231199094308E+04    0.17295E-01   -0.67833E+00  4408   0.257E+00    0.634E-01
RMM:   2    -0.231202804603E+04   -0.37103E-01   -0.36837E-01  6090   0.484E-01    0.589E-01
RMM:   3    -0.231202675479E+04    0.12912E-02   -0.29592E-02  5525   0.118E-01    0.407E-01
RMM:   4    -0.231202481500E+04    0.19398E-02   -0.37860E-03  4965   0.360E-02    0.181E-01
RMM:   5    -0.231202439724E+04    0.41776E-03   -0.18127E-03  4939   0.301E-02    0.832E-02
RMM:   6    -0.231202432405E+04    0.73187E-04   -0.48343E-04  4874   0.185E-02    0.363E-02
RMM:   7    -0.231202431862E+04    0.54353E-05   -0.58927E-05  3176   0.616E-03
  17 F= -.23325646E+04 E0= -.23325646E+04  d E =-.662027E-01  mag=     3.0000
       N       E                     dE             d eps       ncg     rms          rms(c)
DAV:   1    -0.231202949227E+04   -0.51682E-02   -0.87455E+00  4408   0.275E+00    0.726E-01
RMM:   2    -0.231206902357E+04   -0.39531E-01   -0.40544E-01  6117   0.544E-01    0.672E-01
RMM:   3    -0.231206554370E+04    0.34799E-02   -0.29823E-02  5631   0.129E-01    0.444E-01
RMM:   4    -0.231206346671E+04    0.20770E-02   -0.48638E-03  5503   0.394E-02    0.239E-01
RMM:   5    -0.231206273727E+04    0.72944E-03   -0.17799E-03  4931   0.284E-02    0.112E-01
RMM:   6    -0.231206260498E+04    0.13229E-03   -0.99401E-04  5042   0.248E-02    0.312E-02
RMM:   7    -0.231206260504E+04   -0.58848E-07   -0.96513E-05  3646   0.850E-03
  18 F= -.23326023E+04 E0= -.23326023E+04  d E =-.376481E-01  mag=     3.0000
       N       E                     dE             d eps       ncg     rms          rms(c)
DAV:   1    -0.231205869556E+04    0.39094E-02   -0.24095E+00  4496   0.145E+00    0.381E-01
RMM:   2    -0.231206953215E+04   -0.10837E-01   -0.11152E-01  6096   0.285E-01    0.348E-01
RMM:   3    -0.231206856238E+04    0.96977E-03   -0.80485E-03  5585   0.644E-02    0.231E-01
RMM:   4    -0.231206801112E+04    0.55126E-03   -0.13368E-03  5182   0.205E-02    0.124E-01
RMM:   5    -0.231206781777E+04    0.19334E-03   -0.47934E-04  4626   0.150E-02    0.576E-02
RMM:   6    -0.231206778409E+04    0.33687E-04   -0.26048E-04  4426   0.135E-02    0.163E-02
RMM:   7    -0.231206778503E+04   -0.94438E-06   -0.26105E-05  2998   0.555E-03
  19 F= -.23326071E+04 E0= -.23326071E+04  d E =-.424864E-01  mag=     3.0000
       N       E                     dE             d eps       ncg     rms          rms(c)
DAV:   1    -0.231204059298E+04    0.27191E-01   -0.33826E+00  4436   0.182E+00    0.609E-01
RMM:   2    -0.231208309643E+04   -0.42503E-01   -0.44729E-01  6285   0.425E-01    0.363E-01
RMM:   3    -0.231208400647E+04   -0.91003E-03   -0.34416E-02  5565   0.110E-01    0.286E-01
RMM:   4    -0.231208338477E+04    0.62170E-03   -0.42825E-03  5514   0.299E-02    0.179E-01
RMM:   5    -0.231208300636E+04    0.37841E-03   -0.10745E-03  5020   0.188E-02    0.101E-01
RMM:   6    -0.231208283602E+04    0.17034E-03   -0.47394E-04  5023   0.156E-02    0.296E-02
RMM:   7    -0.231208282658E+04    0.94409E-05   -0.61500E-05  3330   0.812E-03
  20 F= -.23326224E+04 E0= -.23326224E+04  d E =-.152353E-01  mag=     3.0000
       N       E                     dE             d eps       ncg     rms          rms(c)
DAV:   1    -0.231207629454E+04    0.65415E-02   -0.61959E-01  4592   0.779E-01    0.262E-01
RMM:   2    -0.231208410652E+04   -0.78120E-02   -0.82182E-02  6273   0.183E-01    0.159E-01
RMM:   3    -0.231208422824E+04   -0.12171E-03   -0.64566E-03  5293   0.479E-02    0.125E-01
RMM:   4    -0.231208411011E+04    0.11812E-03   -0.82638E-04  3905   0.130E-02    0.768E-02
RMM:   5    -0.231208403102E+04    0.79097E-04   -0.20788E-04  3962   0.930E-03    0.430E-02
RMM:   6    -0.231208399616E+04    0.34857E-04   -0.99881E-05  3861   0.834E-03    0.130E-02
RMM:   7    -0.231208399369E+04    0.24726E-05   -0.15637E-05  2862   0.539E-03
  21 F= -.23326236E+04 E0= -.23326236E+04  d E =-.164771E-01  mag=     3.0000
       N       E                     dE             d eps       ncg     rms          rms(c)
DAV:   1    -0.231206583613E+04    0.18160E-01   -0.19792E+00  4448   0.142E+00    0.447E-01
RMM:   2    -0.231209316244E+04   -0.27326E-01   -0.28866E-01  6222   0.312E-01    0.242E-01
RMM:   3    -0.231209425411E+04   -0.10917E-02   -0.23692E-02  5597   0.895E-02    0.166E-01
RMM:   4    -0.231209419108E+04    0.63037E-04   -0.27840E-03  5097   0.225E-02    0.135E-01
RMM:   5    -0.231209401339E+04    0.17769E-03   -0.53095E-04  4617   0.144E-02    0.736E-02
RMM:   6    -0.231209393524E+04    0.78147E-04   -0.27732E-04  4724   0.119E-02    0.252E-02
RMM:   7    -0.231209392928E+04    0.59626E-05   -0.32026E-05  2922   0.669E-03
  22 F= -.23326338E+04 E0= -.23326338E+04  d E =-.101783E-01  mag=     3.0000
       N       E                     dE             d eps       ncg     rms          rms(c)
DAV:   1    -0.231206326397E+04    0.30671E-01   -0.23641E+00  4432   0.156E+00    0.489E-01
RMM:   2    -0.231209582726E+04   -0.32563E-01   -0.34383E-01  6207   0.337E-01    0.271E-01
RMM:   3    -0.231209708252E+04   -0.12553E-02   -0.28391E-02  5602   0.962E-02    0.188E-01
RMM:   4    -0.231209697180E+04    0.11072E-03   -0.33259E-03  5257   0.244E-02    0.147E-01
RMM:   5    -0.231209676373E+04    0.20807E-03   -0.62969E-04  4743   0.155E-02    0.821E-02
RMM:   6    -0.231209666237E+04    0.10136E-03   -0.35152E-04  4915   0.130E-02    0.284E-02
RMM:   7    -0.231209665419E+04    0.81832E-05   -0.39157E-05  2969   0.713E-03
  23 F= -.23326367E+04 E0= -.23326367E+04  d E =-.131365E-01  mag=     3.0000
       N       E                     dE             d eps       ncg     rms          rms(c)
DAV:   1    -0.231209242681E+04    0.42356E-02   -0.11141E+00  4464   0.107E+00    0.282E-01
RMM:   2    -0.231210409969E+04   -0.11673E-01   -0.12094E-01  6128   0.208E-01    0.204E-01
RMM:   3    -0.231210447670E+04   -0.37701E-03   -0.99482E-03  5539   0.588E-02    0.150E-01
RMM:   4    -0.231210433012E+04    0.14658E-03   -0.12774E-03  4118   0.161E-02    0.826E-02
RMM:   5    -0.231210425714E+04    0.72983E-04   -0.18098E-04  3882   0.947E-03    0.511E-02
RMM:   6    -0.231210422654E+04    0.30603E-04   -0.19703E-04  4232   0.105E-02    0.167E-02
RMM:   7    -0.231210422495E+04    0.15892E-05   -0.21590E-05  2868   0.595E-03
  24 F= -.23326445E+04 E0= -.23326445E+04  d E =-.772513E-02  mag=     3.0000
       N       E                     dE             d eps       ncg     rms          rms(c)
DAV:   1    -0.231201054956E+04    0.93677E-01   -0.10032E+01  4408   0.321E+00    0.832E-01
RMM:   2    -0.231211418530E+04   -0.10364E+00   -0.10767E+00  6073   0.616E-01    0.578E-01
RMM:   3    -0.231211861927E+04   -0.44340E-02   -0.90966E-02  5685   0.182E-01    0.439E-01
RMM:   4    -0.231211727628E+04    0.13430E-02   -0.10686E-02  5405   0.466E-02    0.246E-01
RMM:   5    -0.231211669364E+04    0.58263E-03   -0.17553E-03  5233   0.272E-02    0.156E-01
RMM:   6    -0.231211638404E+04    0.30960E-03   -0.15287E-03  5169   0.257E-02    0.503E-02
RMM:   7    -0.231211636614E+04    0.17904E-04   -0.14418E-04  3991   0.129E-02    0.259E-02
RMM:   8    -0.231211635815E+04    0.79856E-05   -0.30134E-05  2894   0.433E-03
  25 F= -.23326570E+04 E0= -.23326570E+04  d E =-.202152E-01  mag=     3.0000
       N       E                     dE             d eps       ncg     rms          rms(c)
DAV:   1    -0.231210886091E+04    0.75052E-02   -0.76911E-01  4528   0.886E-01    0.233E-01
RMM:   2    -0.231211685194E+04   -0.79910E-02   -0.82727E-02  6093   0.173E-01    0.168E-01
RMM:   3    -0.231211710854E+04   -0.25660E-03   -0.68508E-03  5388   0.493E-02    0.122E-01
RMM:   4    -0.231211701673E+04    0.91810E-04   -0.88154E-04  3660   0.134E-02    0.692E-02
RMM:   5    -0.231211696353E+04    0.53205E-04   -0.12765E-04  3529   0.834E-03    0.422E-02
RMM:   6    -0.231211694160E+04    0.21926E-04   -0.14209E-04  3975   0.924E-03    0.137E-02
RMM:   7    -0.231211694038E+04    0.12226E-05   -0.15958E-05  2861   0.551E-03
  26 F= -.23326576E+04 E0= -.23326576E+04  d E =-.208674E-01  mag=     3.0000
       N       E                     dE             d eps       ncg     rms          rms(c)
DAV:   1    -0.231209237492E+04    0.24567E-01   -0.31755E+00  4408   0.182E+00    0.505E-01
RMM:   2    -0.231212827572E+04   -0.35901E-01   -0.37620E-01  6084   0.360E-01    0.271E-01
RMM:   3    -0.231213060537E+04   -0.23296E-02   -0.35328E-02  5578   0.113E-01    0.234E-01
RMM:   4    -0.231213029055E+04    0.31482E-03   -0.37031E-03  5276   0.287E-02    0.147E-01
RMM:   5    -0.231213001829E+04    0.27226E-03   -0.69314E-04  4746   0.177E-02    0.621E-02
RMM:   6    -0.231212997997E+04    0.38319E-04   -0.29005E-04  4710   0.134E-02    0.220E-02
RMM:   7    -0.231212997348E+04    0.64900E-05   -0.32438E-05  2956   0.643E-03
  27 F= -.23326710E+04 E0= -.23326710E+04  d E =-.133685E-01  mag=     3.0000
       N       E                     dE             d eps       ncg     rms          rms(c)
DAV:   1    -0.231199997331E+04    0.13001E+00   -0.11326E+01  4408   0.343E+00    0.954E-01
RMM:   2    -0.231212816808E+04   -0.12819E+00   -0.13440E+00  6044   0.677E-01    0.518E-01
RMM:   3    -0.231213707578E+04   -0.89077E-02   -0.13140E-01  5552   0.219E-01    0.460E-01
RMM:   4    -0.231213576259E+04    0.13132E-02   -0.13344E-02  5643   0.535E-02    0.278E-01
RMM:   5    -0.231213488145E+04    0.88115E-03   -0.26209E-03  4960   0.326E-02    0.135E-01
RMM:   6    -0.231213467820E+04    0.20325E-03   -0.11968E-03  5360   0.241E-02    0.534E-02
RMM:   7    -0.231213463691E+04    0.41285E-04   -0.16096E-04  4373   0.125E-02    0.255E-02
RMM:   8    -0.231213461996E+04    0.16951E-04   -0.36489E-05  2930   0.519E-03    0.138E-02
RMM:   9    -0.231213461360E+04    0.63627E-05   -0.20377E-05  2892   0.415E-03
  28 F= -.23326761E+04 E0= -.23326761E+04  d E =-.184973E-01  mag=     3.0000
       N       E                     dE             d eps       ncg     rms          rms(c)
DAV:   1    -0.231212353430E+04    0.11086E-01   -0.10409E+00  4496   0.104E+00    0.292E-01
RMM:   2    -0.231213548410E+04   -0.11950E-01   -0.12508E-01  6120   0.210E-01    0.168E-01
RMM:   3    -0.231213621291E+04   -0.72882E-03   -0.11796E-02  5571   0.641E-02    0.148E-01
RMM:   4    -0.231213606816E+04    0.14476E-03   -0.12406E-03  4218   0.170E-02    0.821E-02
RMM:   5    -0.231213597702E+04    0.91143E-04   -0.19804E-04  3937   0.103E-02    0.374E-02
RMM:   6    -0.231213596349E+04    0.13524E-04   -0.10208E-04  3895   0.926E-03    0.119E-02
RMM:   7    -0.231213596252E+04    0.97415E-06   -0.15096E-05  2870   0.529E-03
  29 F= -.23326773E+04 E0= -.23326773E+04  d E =-.197186E-01  mag=     3.0000
       N       E                     dE             d eps       ncg     rms          rms(c)
DAV:   1    -0.231211866722E+04    0.17296E-01   -0.21945E+00  4420   0.146E+00    0.408E-01
RMM:   2    -0.231214551892E+04   -0.26852E-01   -0.28085E-01  6150   0.298E-01    0.212E-01
RMM:   3    -0.231214730796E+04   -0.17890E-02   -0.26619E-02  5512   0.921E-02    0.160E-01
RMM:   4    -0.231214730858E+04   -0.62599E-06   -0.27327E-03  4736   0.224E-02    0.126E-01
RMM:   5    -0.231214713612E+04    0.17246E-03   -0.42807E-04  4416   0.129E-02    0.594E-02
RMM:   6    -0.231214710144E+04    0.34684E-04   -0.21948E-04  4338   0.106E-02    0.179E-02
RMM:   7    -0.231214710001E+04    0.14289E-05   -0.21964E-05  2888   0.587E-03
  30 F= -.23326886E+04 E0= -.23326886E+04  d E =-.112820E-01  mag=     3.0000
       N       E                     dE             d eps       ncg     rms          rms(c)
DAV:   1    -0.231190350483E+04    0.24360E+00   -0.19717E+01  4408   0.438E+00    0.123E+00
RMM:   2    -0.231214822878E+04   -0.24472E+00   -0.25626E+00  6147   0.893E-01    0.634E-01
RMM:   3    -0.231216606223E+04   -0.17833E-01   -0.25226E-01  5613   0.275E-01    0.491E-01
RMM:   4    -0.231216582382E+04    0.23841E-03   -0.24371E-02  5630   0.639E-02    0.362E-01
RMM:   5    -0.231216470817E+04    0.11157E-02   -0.41483E-03  5331   0.370E-02    0.220E-01
RMM:   6    -0.231216420841E+04    0.49975E-03   -0.20645E-03  5343   0.280E-02    0.777E-02
RMM:   7    -0.231216416244E+04    0.45971E-04   -0.26792E-04  4622   0.148E-02    0.360E-02
RMM:   8    -0.231216414533E+04    0.17112E-04   -0.63200E-05  3024   0.619E-03    0.203E-02
RMM:   9    -0.231216414256E+04    0.27697E-05   -0.27072E-05  2897   0.444E-03
  31 F= -.23327059E+04 E0= -.23327059E+04  d E =-.285256E-01  mag=     3.0000
       N       E                     dE             d eps       ncg     rms          rms(c)
DAV:   1    -0.231214128475E+04    0.22861E-01   -0.27095E+00  4420   0.160E+00    0.492E-01
RMM:   2    -0.231217594356E+04   -0.34659E-01   -0.36545E-01  6161   0.341E-01    0.262E-01
RMM:   3    -0.231217774357E+04   -0.18000E-02   -0.33423E-02  5568   0.103E-01    0.176E-01
RMM:   4    -0.231217775834E+04   -0.14777E-04   -0.35554E-03  5132   0.254E-02    0.148E-01
RMM:   5    -0.231217757012E+04    0.18822E-03   -0.66622E-04  4741   0.159E-02    0.851E-02
RMM:   6    -0.231217747393E+04    0.96195E-04   -0.32538E-04  4725   0.127E-02    0.211E-02
RMM:   7    -0.231217747170E+04    0.22266E-05   -0.32922E-05  2925   0.680E-03
  32 F= -.23327192E+04 E0= -.23327192E+04  d E =-.133577E-01  mag=     3.0000
       N       E                     dE             d eps       ncg     rms          rms(c)
DAV:   1    -0.231208957068E+04    0.87903E-01   -0.71275E+00  4408   0.260E+00    0.799E-01
RMM:   2    -0.231218094302E+04   -0.91372E-01   -0.96392E-01  6159   0.552E-01    0.437E-01
RMM:   3    -0.231218626484E+04   -0.53218E-02   -0.92003E-02  5584   0.172E-01    0.304E-01
RMM:   4    -0.231218613010E+04    0.13474E-03   -0.93198E-03  5441   0.411E-02    0.234E-01
RMM:   5    -0.231218569451E+04    0.43558E-03   -0.18294E-03  5353   0.253E-02    0.145E-01
RMM:   6    -0.231218540226E+04    0.29225E-03   -0.82998E-04  5138   0.193E-02    0.383E-02
RMM:   7    -0.231218539302E+04    0.92380E-05   -0.88869E-05  3638   0.982E-03
  33 F= -.23327270E+04 E0= -.23327270E+04  d E =-.211825E-01  mag=     3.0000
       N       E                     dE             d eps       ncg     rms          rms(c)
DAV:   1    -0.231216568711E+04    0.19715E-01   -0.17032E+00  4496   0.125E+00    0.391E-01
RMM:   2    -0.231219249293E+04   -0.26806E-01   -0.28186E-01  6262   0.278E-01    0.231E-01
RMM:   3    -0.231219432254E+04   -0.18296E-02   -0.27577E-02  5598   0.843E-02    0.171E-01
RMM:   4    -0.231219425918E+04    0.63354E-04   -0.27308E-03  4508   0.202E-02    0.118E-01
RMM:   5    -0.231219413373E+04    0.12546E-03   -0.34338E-04  3990   0.112E-02    0.624E-02
RMM:   6    -0.231219408952E+04    0.44207E-04   -0.21732E-04  4232   0.101E-02    0.186E-02
RMM:   7    -0.231219408893E+04    0.59295E-06   -0.24326E-05  2888   0.590E-03
  34 F= -.23327358E+04 E0= -.23327358E+04  d E =-.877958E-02  mag=     3.0000
       N       E                     dE             d eps       ncg     rms          rms(c)
DAV:   1    -0.231195119667E+04    0.24289E+00   -0.15303E+01  4408   0.375E+00    0.117E+00
RMM:   2    -0.231219281012E+04   -0.24161E+00   -0.25405E+00  6267   0.826E-01    0.688E-01
RMM:   3    -0.231221069599E+04   -0.17886E-01   -0.26364E-01  5680   0.269E-01    0.479E-01
RMM:   4    -0.231221027062E+04    0.42537E-03   -0.23322E-02  5557   0.569E-02    0.324E-01
RMM:   5    -0.231220955951E+04    0.71111E-03   -0.36179E-03  5104   0.340E-02    0.214E-01
RMM:   6    -0.231220907954E+04    0.47997E-03   -0.17253E-03  5415   0.245E-02    0.915E-02
RMM:   7    -0.231220900844E+04    0.71095E-04   -0.30236E-04  4339   0.144E-02    0.331E-02
RMM:   8    -0.231220898786E+04    0.20582E-04   -0.62378E-05  2990   0.605E-03    0.210E-02
RMM:   9    -0.231220898262E+04    0.52351E-05   -0.34587E-05  2876   0.457E-03
  35 F= -.23327507E+04 E0= -.23327507E+04  d E =-.236275E-01  mag=     3.0000
       N       E                     dE             d eps       ncg     rms          rms(c)
DAV:   1    -0.231217949755E+04    0.29490E-01   -0.18659E+00  4468   0.131E+00    0.406E-01
RMM:   2    -0.231220855178E+04   -0.29054E-01   -0.30536E-01  6308   0.290E-01    0.234E-01
RMM:   3    -0.231221054455E+04   -0.19928E-02   -0.29537E-02  5583   0.863E-02    0.164E-01
RMM:   4    -0.231221053093E+04    0.13623E-04   -0.29249E-03  4617   0.206E-02    0.127E-01
RMM:   5    -0.231221038667E+04    0.14426E-03   -0.39692E-04  4052   0.118E-02    0.665E-02
RMM:   6    -0.231221033124E+04    0.55429E-04   -0.24056E-04  4291   0.105E-02    0.195E-02
RMM:   7    -0.231221032992E+04    0.13174E-05   -0.26202E-05  2905   0.619E-03
  36 F= -.23327519E+04 E0= -.23327519E+04  d E =-.248546E-01  mag=     3.0000
       N       E                     dE             d eps       ncg     rms          rms(c)
DAV:   1    -0.231218722848E+04    0.23103E-01   -0.25446E+00  4420   0.157E+00    0.494E-01
RMM:   2    -0.231222240382E+04   -0.35175E-01   -0.36678E-01  6065   0.328E-01    0.325E-01
RMM:   3    -0.231222474303E+04   -0.23392E-02   -0.35760E-02  5611   0.110E-01    0.276E-01
RMM:   4    -0.231222412897E+04    0.61406E-03   -0.36677E-03  5265   0.286E-02    0.137E-01
RMM:   5    -0.231222392710E+04    0.20187E-03   -0.67519E-04  4997   0.177E-02    0.717E-02
RMM:   6    -0.231222387291E+04    0.54193E-04   -0.37494E-04  4719   0.135E-02    0.257E-02
RMM:   7    -0.231222386661E+04    0.62996E-05   -0.38534E-05  2959   0.665E-03
  37 F= -.23327653E+04 E0= -.23327653E+04  d E =-.133647E-01  mag=     3.0000
       N       E                     dE             d eps       ncg     rms          rms(c)
DAV:   1    -0.231217158329E+04    0.52290E-01   -0.39558E+00  4408   0.196E+00    0.616E-01
RMM:   2    -0.231222616042E+04   -0.54577E-01   -0.56940E-01  6052   0.409E-01    0.401E-01
RMM:   3    -0.231222992001E+04   -0.37596E-02   -0.57349E-02  5621   0.138E-01    0.339E-01
RMM:   4    -0.231222902877E+04    0.89124E-03   -0.57303E-03  5393   0.354E-02    0.171E-01
RMM:   5    -0.231222871325E+04    0.31552E-03   -0.10891E-03  5135   0.221E-02    0.897E-02
RMM:   6    -0.231222863101E+04    0.82242E-04   -0.57532E-04  4995   0.164E-02    0.323E-02
RMM:   7    -0.231222862078E+04    0.10230E-04   -0.57715E-05  3183   0.767E-03    0.170E-02
RMM:   8    -0.231222861834E+04    0.24360E-05   -0.15686E-05  2861   0.420E-03
  38 F= -.23327697E+04 E0= -.23327697E+04  d E =-.178143E-01  mag=     3.0000
       N       E                     dE             d eps       ncg     rms          rms(c)
DAV:   1    -0.231219349950E+04    0.35121E-01   -0.32953E+00  4420   0.178E+00    0.544E-01
RMM:   2    -0.231223695869E+04   -0.43459E-01   -0.45312E-01  6046   0.362E-01    0.328E-01
RMM:   3    -0.231224018486E+04   -0.32262E-02   -0.45499E-02  5607   0.124E-01    0.292E-01
RMM:   4    -0.231223958531E+04    0.59955E-03   -0.46078E-03  5149   0.308E-02    0.149E-01
RMM:   5    -0.231223931602E+04    0.26929E-03   -0.78606E-04  4992   0.184E-02    0.743E-02
RMM:   6    -0.231223926909E+04    0.46927E-04   -0.41992E-04  4801   0.146E-02    0.256E-02
RMM:   7    -0.231223926071E+04    0.83785E-05   -0.39837E-05  2999   0.670E-03
  39 F= -.23327795E+04 E0= -.23327795E+04  d E =-.980888E-02  mag=     3.0000
       N       E                     dE             d eps       ncg     rms          rms(c)
DAV:   1    -0.231221956405E+04    0.19705E-01   -0.16095E+00  4480   0.124E+00    0.382E-01
RMM:   2    -0.231224083819E+04   -0.21274E-01   -0.22202E-01  6049   0.254E-01    0.233E-01
RMM:   3    -0.231224234720E+04   -0.15090E-02   -0.21920E-02  5594   0.838E-02    0.205E-01
RMM:   4    -0.231224205704E+04    0.29015E-03   -0.22723E-03  4663   0.217E-02    0.105E-01
RMM:   5    -0.231224191960E+04    0.13744E-03   -0.37537E-04  4466   0.132E-02    0.521E-02
RMM:   6    -0.231224189267E+04    0.26928E-04   -0.21532E-04  4310   0.113E-02    0.174E-02
RMM:   7    -0.231224188842E+04    0.42538E-05   -0.22481E-05  2884   0.567E-03
  40 F= -.23327815E+04 E0= -.23327815E+04  d E =-.118084E-01  mag=     3.0000
       N       E                     dE             d eps       ncg     rms          rms(c)
DAV:   1    -0.231221123747E+04    0.30655E-01   -0.27922E+00  4420   0.164E+00    0.528E-01
RMM:   2    -0.231225339770E+04   -0.42160E-01   -0.44592E-01  6185   0.369E-01    0.255E-01
RMM:   3    -0.231225621349E+04   -0.28158E-02   -0.43376E-02  5569   0.113E-01    0.153E-01
RMM:   4    -0.231225638037E+04   -0.16687E-03   -0.41246E-03  4937   0.274E-02    0.131E-01
RMM:   5    -0.231225631622E+04    0.64150E-04   -0.70349E-04  4558   0.168E-02    0.108E-01
RMM:   6    -0.231225618488E+04    0.13134E-03   -0.23112E-04  4323   0.109E-02    0.208E-02
RMM:   7    -0.231225618544E+04   -0.55875E-06   -0.35007E-05  2956   0.633E-03
  41 F= -.23327945E+04 E0= -.23327945E+04  d E =-.129442E-01  mag=     3.0000
       N       E                     dE             d eps       ncg     rms          rms(c)
DAV:   1    -0.231220427974E+04    0.51905E-01   -0.35987E+00  4408   0.186E+00    0.599E-01
RMM:   2    -0.231225860633E+04   -0.54327E-01   -0.57444E-01  6180   0.419E-01    0.291E-01
RMM:   3    -0.231226227304E+04   -0.36667E-02   -0.56122E-02  5575   0.127E-01    0.174E-01
RMM:   4    -0.231226247742E+04   -0.20438E-03   -0.52952E-03  4911   0.309E-02    0.145E-01
RMM:   5    -0.231226242435E+04    0.53067E-04   -0.92190E-04  4816   0.190E-02    0.128E-01
RMM:   6    -0.231226224015E+04    0.18420E-03   -0.31228E-04  4552   0.123E-02    0.240E-02
RMM:   7    -0.231226224088E+04   -0.73806E-06   -0.45175E-05  2956   0.673E-03
  42 F= -.23327989E+04 E0= -.23327989E+04  d E =-.173912E-01  mag=     3.0000
       N       E                     dE             d eps       ncg     rms          rms(c)
DAV:   1    -0.231223451042E+04    0.27730E-01   -0.26348E+00  4408   0.158E+00    0.511E-01
RMM:   2    -0.231227159193E+04   -0.37082E-01   -0.39409E-01  6242   0.360E-01    0.252E-01
RMM:   3    -0.231227365665E+04   -0.20647E-02   -0.36903E-02  5571   0.105E-01    0.149E-01
RMM:   4    -0.231227380625E+04   -0.14959E-03   -0.37552E-03  4983   0.243E-02    0.132E-01
RMM:   5    -0.231227368427E+04    0.12197E-03   -0.55023E-04  4372   0.142E-02    0.102E-01
RMM:   6    -0.231227357821E+04    0.10606E-03   -0.30820E-04  4388   0.116E-02    0.185E-02
RMM:   7    -0.231227357884E+04   -0.63024E-06   -0.44527E-05  2933   0.754E-03
  43 F= -.23328089E+04 E0= -.23328089E+04  d E =-.995786E-02  mag=     3.0000
       N       E                     dE             d eps       ncg     rms          rms(c)
DAV:   1    -0.231192578177E+04    0.34780E+00   -0.23686E+01  4408   0.475E+00    0.153E+00
RMM:   2    -0.231225991044E+04   -0.33413E+00   -0.35507E+00  6253   0.106E+00    0.778E-01
RMM:   3    -0.231228265596E+04   -0.22746E-01   -0.36107E-01  5617   0.324E-01    0.522E-01
RMM:   4    -0.231228299705E+04   -0.34109E-03   -0.33795E-02  5731   0.761E-02    0.408E-01
RMM:   5    -0.231228198935E+04    0.10077E-02   -0.53325E-03  5408   0.395E-02    0.327E-01
RMM:   6    -0.231228079160E+04    0.11977E-02   -0.31850E-03  4991   0.327E-02    0.747E-02
RMM:   7    -0.231228079944E+04   -0.78323E-05   -0.41208E-04  4292   0.189E-02    0.371E-02
RMM:   8    -0.231228078679E+04    0.12642E-04   -0.72091E-05  3276   0.669E-03    0.174E-02
RMM:   9    -0.231228078450E+04    0.22907E-05   -0.25821E-05  2904   0.456E-03
  44 F= -.23328116E+04 E0= -.23328116E+04  d E =-.127381E-01  mag=     3.0000
       N       E                     dE             d eps       ncg     rms          rms(c)
DAV:   1    -0.231221520785E+04    0.65579E-01   -0.45156E+00  4408   0.207E+00    0.679E-01
RMM:   2    -0.231227991080E+04   -0.64703E-01   -0.68974E-01  6279   0.481E-01    0.338E-01
RMM:   3    -0.231228281579E+04   -0.29050E-02   -0.65628E-02  5658   0.141E-01    0.214E-01
RMM:   4    -0.231228307933E+04   -0.26354E-03   -0.73726E-03  5162   0.315E-02    0.175E-01
RMM:   5    -0.231228282709E+04    0.25224E-03   -0.98385E-04  4686   0.177E-02    0.143E-01
RMM:   6    -0.231228266069E+04    0.16640E-03   -0.51020E-04  4623   0.141E-02    0.601E-02
RMM:   7    -0.231228261071E+04    0.49986E-04   -0.19812E-04  3555   0.114E-02    0.178E-02
RMM:   8    -0.231228261114E+04   -0.42970E-06   -0.41211E-05  3001   0.443E-03
  45 F= -.23328155E+04 E0= -.23328155E+04  d E =-.165470E-01  mag=     3.0000
       N       E                     dE             d eps       ncg     rms          rms(c)
DAV:   1    -0.231225307309E+04    0.29538E-01   -0.26770E+00  4408   0.159E+00    0.513E-01
RMM:   2    -0.231229338375E+04   -0.40311E-01   -0.42864E-01  6292   0.367E-01    0.264E-01
RMM:   3    -0.231229554793E+04   -0.21642E-02   -0.39659E-02  5622   0.106E-01    0.149E-01
RMM:   4    -0.231229558765E+04   -0.39721E-04   -0.38421E-03  4752   0.241E-02    0.957E-02
RMM:   5    -0.231229556109E+04    0.26558E-04   -0.57008E-04  4833   0.168E-02    0.992E-02
RMM:   6    -0.231229545766E+04    0.10343E-03   -0.22669E-04  3458   0.987E-03    0.313E-02
RMM:   7    -0.231229545171E+04    0.59565E-05   -0.38356E-05  2916   0.515E-03
  46 F= -.23328270E+04 E0= -.23328270E+04  d E =-.114991E-01  mag=     3.0000
       N       E                     dE             d eps       ncg     rms          rms(c)
DAV:   1    -0.231203579640E+04    0.25966E+00   -0.17201E+01  4408   0.403E+00    0.130E+00
RMM:   2    -0.231229475426E+04   -0.25896E+00   -0.27528E+00  6273   0.920E-01    0.689E-01
RMM:   3    -0.231231100724E+04   -0.16253E-01   -0.27220E-01  5647   0.278E-01    0.414E-01
RMM:   4    -0.231231118171E+04   -0.17447E-03   -0.24956E-02  5446   0.633E-02    0.274E-01
RMM:   5    -0.231231126707E+04   -0.85366E-04   -0.38626E-03  5234   0.388E-02    0.328E-01
RMM:   6    -0.231231009358E+04    0.11735E-02   -0.21114E-03  5434   0.261E-02    0.812E-02
RMM:   7    -0.231231008866E+04    0.49209E-05   -0.31985E-04  4143   0.113E-02    0.333E-02
RMM:   8    -0.231231007342E+04    0.15236E-04   -0.55780E-05  2936   0.753E-03    0.150E-02
RMM:   9    -0.231231007079E+04    0.26370E-05   -0.28999E-05  2923   0.412E-03
  47 F= -.23328380E+04 E0= -.23328380E+04  d E =-.225156E-01  mag=     3.0000
       N       E                     dE             d eps       ncg     rms          rms(c)
DAV:   1    -0.231224521523E+04    0.64858E-01   -0.50924E+00  4408   0.216E+00    0.702E-01
RMM:   2    -0.231232095057E+04   -0.75735E-01   -0.80162E-01  6275   0.489E-01    0.380E-01
RMM:   3    -0.231232542844E+04   -0.44779E-02   -0.75582E-02  5719   0.144E-01    0.252E-01
RMM:   4    -0.231232559955E+04   -0.17111E-03   -0.77079E-03  5372   0.335E-02    0.216E-01
RMM:   5    -0.231232524433E+04    0.35522E-03   -0.13309E-03  4992   0.202E-02    0.132E-01
RMM:   6    -0.231232504684E+04    0.19748E-03   -0.65875E-04  4999   0.165E-02    0.307E-02
RMM:   7    -0.231232504310E+04    0.37423E-05   -0.59178E-05  3104   0.814E-03
  48 F= -.23328506E+04 E0= -.23328506E+04  d E =-.126700E-01  mag=     3.0000
       N       E                     dE             d eps       ncg     rms          rms(c)
DAV:   1    -0.231218743540E+04    0.13761E+00   -0.93228E+00  4408   0.292E+00    0.952E-01
RMM:   2    -0.231232625533E+04   -0.13882E+00   -0.14691E+00  6250   0.664E-01    0.522E-01
RMM:   3    -0.231233474821E+04   -0.84929E-02   -0.14205E-01  5737   0.201E-01    0.346E-01
RMM:   4    -0.231233494135E+04   -0.19315E-03   -0.13878E-02  5469   0.448E-02    0.282E-01
RMM:   5    -0.231233446660E+04    0.47476E-03   -0.24997E-03  5308   0.274E-02    0.196E-01
RMM:   6    -0.231233402000E+04    0.44660E-03   -0.12320E-03  5234   0.217E-02    0.464E-02
RMM:   7    -0.231233401246E+04    0.75449E-05   -0.11343E-04  3528   0.103E-02    0.202E-02
RMM:   8    -0.231233400621E+04    0.62425E-05   -0.26994E-05  2887   0.420E-03
  49 F= -.23328564E+04 E0= -.23328564E+04  d E =-.184063E-01  mag=     3.0000
       N       E                     dE             d eps       ncg     rms          rms(c)
DAV:   1    -0.231227156494E+04    0.62448E-01   -0.58327E+00  4408   0.228E+00    0.736E-01
RMM:   2    -0.231234901815E+04   -0.77453E-01   -0.81690E-01  6217   0.506E-01    0.420E-01
RMM:   3    -0.231235305116E+04   -0.40330E-02   -0.71370E-02  5736   0.148E-01    0.303E-01
RMM:   4    -0.231235302067E+04    0.30499E-04   -0.79122E-03  5386   0.374E-02    0.233E-01
RMM:   5    -0.231235260780E+04    0.41286E-03   -0.16605E-03  5230   0.235E-02    0.143E-01
RMM:   6    -0.231235240230E+04    0.20550E-03   -0.80795E-04  5039   0.184E-02    0.359E-02
RMM:   7    -0.231235239357E+04    0.87370E-05   -0.84349E-05  3287   0.837E-03
  50 F= -.23328717E+04 E0= -.23328717E+04  d E =-.153330E-01  mag=     3.0000
       N       E                     dE             d eps       ncg     rms          rms(c)
DAV:   1    -0.231227719542E+04    0.75207E-01   -0.59484E+00  4408   0.231E+00    0.748E-01
RMM:   2    -0.231235718925E+04   -0.79994E-01   -0.84461E-01  6203   0.515E-01    0.420E-01
RMM:   3    -0.231236108187E+04   -0.38926E-02   -0.72834E-02  5748   0.149E-01    0.297E-01
RMM:   4    -0.231236111581E+04   -0.33939E-04   -0.80686E-03  5378   0.376E-02    0.234E-01
RMM:   5    -0.231236071904E+04    0.39677E-03   -0.17201E-03  5230   0.240E-02    0.148E-01
RMM:   6    -0.231236050010E+04    0.21894E-03   -0.80465E-04  5041   0.183E-02    0.370E-02
RMM:   7    -0.231236048961E+04    0.10496E-04   -0.91638E-05  3337   0.857E-03    0.188E-02
RMM:   8    -0.231236048523E+04    0.43741E-05   -0.21397E-05  2860   0.379E-03
  51 F= -.23328767E+04 E0= -.23328767E+04  d E =-.202754E-01  mag=     3.0000
       N       E                     dE             d eps       ncg     rms          rms(c)
DAV:   1    -0.231229100725E+04    0.69482E-01   -0.56984E+00  4432   0.229E+00    0.750E-01
RMM:   2    -0.231237216241E+04   -0.81155E-01   -0.86335E-01  6209   0.525E-01    0.371E-01
RMM:   3    -0.231237646802E+04   -0.43056E-02   -0.77162E-02  5644   0.152E-01    0.230E-01
RMM:   4    -0.231237670337E+04   -0.23535E-03   -0.77019E-03  5138   0.361E-02    0.178E-01
RMM:   5    -0.231237672585E+04   -0.22482E-04   -0.15166E-03  5032   0.232E-02    0.194E-01
RMM:   6    -0.231237633319E+04    0.39265E-03   -0.61835E-04  4846   0.147E-02    0.264E-02
RMM:   7    -0.231237633478E+04   -0.15908E-05   -0.83505E-05  2972   0.744E-03
  52 F= -.23328897E+04 E0= -.23328897E+04  d E =-.130559E-01  mag=     3.0000
       N       E                     dE             d eps       ncg     rms          rms(c)
DAV:   1    -0.231232792612E+04    0.48407E-01   -0.35708E+00  4480   0.181E+00    0.594E-01
RMM:   2    -0.231237904028E+04   -0.51114E-01   -0.54345E-01  6192   0.418E-01    0.294E-01
RMM:   3    -0.231238165792E+04   -0.26176E-02   -0.48056E-02  5602   0.120E-01    0.190E-01
RMM:   4    -0.231238197757E+04   -0.31965E-03   -0.51406E-03  5124   0.294E-02    0.191E-01
RMM:   5    -0.231238165995E+04    0.31763E-03   -0.96780E-04  4752   0.179E-02    0.115E-01
RMM:   6    -0.231238154908E+04    0.11087E-03   -0.32905E-04  4310   0.120E-02    0.216E-02
RMM:   7    -0.231238154848E+04    0.59654E-06   -0.53010E-05  2978   0.801E-03
  53 F= -.23328927E+04 E0= -.23328927E+04  d E =-.160226E-01  mag=     3.0000
       N       E                     dE             d eps       ncg     rms          rms(c)
DAV:   1    -0.231234343444E+04    0.38115E-01   -0.36357E+00  4420   0.181E+00    0.587E-01
RMM:   2    -0.231239403730E+04   -0.50603E-01   -0.53580E-01  6238   0.417E-01    0.311E-01
RMM:   3    -0.231239674832E+04   -0.27110E-02   -0.47474E-02  5577   0.117E-01    0.259E-01
RMM:   4    -0.231239679662E+04   -0.48300E-04   -0.53346E-03  5287   0.291E-02    0.207E-01
RMM:   5    -0.231239635657E+04    0.44005E-03   -0.81345E-04  4625   0.155E-02    0.899E-02
RMM:   6    -0.231239630111E+04    0.55465E-04   -0.40499E-04  4561   0.142E-02    0.211E-02
RMM:   7    -0.231239630165E+04   -0.54472E-06   -0.40066E-05  3031   0.660E-03
  54 F= -.23329054E+04 E0= -.23329054E+04  d E =-.126895E-01  mag=     3.0000
       N       E                     dE             d eps       ncg     rms          rms(c)
DAV:   1    -0.231194332247E+04    0.45298E+00   -0.32773E+01  4408   0.543E+00    0.176E+00
RMM:   2    -0.231239750578E+04   -0.45418E+00   -0.48110E+00  6237   0.124E+00    0.940E-01
RMM:   3    -0.231242862832E+04   -0.31123E-01   -0.45639E-01  5641   0.363E-01    0.795E-01
RMM:   4    -0.231242804729E+04    0.58103E-03   -0.47358E-02  5854   0.920E-02    0.625E-01
RMM:   5    -0.231242494849E+04    0.30988E-02   -0.88562E-03  5389   0.437E-02    0.343E-01
RMM:   6    -0.231242387780E+04    0.10707E-02   -0.43496E-03  5014   0.387E-02    0.944E-02
RMM:   7    -0.231242387908E+04   -0.12827E-05   -0.46668E-04  4612   0.213E-02    0.427E-02
RMM:   8    -0.231242386440E+04    0.14673E-04   -0.89072E-05  3234   0.673E-03    0.195E-02
RMM:   9    -0.231242386568E+04   -0.12738E-05   -0.37120E-05  2979   0.487E-03
  55 F= -.23329265E+04 E0= -.23329265E+04  d E =-.338518E-01  mag=     3.0000
       N       E                     dE             d eps       ncg     rms          rms(c)
DAV:   1    -0.231235695636E+04    0.66908E-01   -0.61460E+00  4432   0.236E+00    0.795E-01
RMM:   2    -0.231244087964E+04   -0.83923E-01   -0.88779E-01  6156   0.544E-01    0.418E-01
RMM:   3    -0.231244509650E+04   -0.42169E-02   -0.78171E-02  5571   0.159E-01    0.315E-01
RMM:   4    -0.231244549355E+04   -0.39705E-03   -0.91722E-03  5582   0.410E-02    0.301E-01
RMM:   5    -0.231244460682E+04    0.88674E-03   -0.18068E-03  5258   0.233E-02    0.137E-01
RMM:   6    -0.231244444970E+04    0.15711E-03   -0.70750E-04  4894   0.177E-02    0.301E-02
RMM:   7    -0.231244445148E+04   -0.17813E-05   -0.81566E-05  3328   0.950E-03
  56 F= -.23329441E+04 E0= -.23329441E+04  d E =-.175919E-01  mag=     3.0000
       N       E                     dE             d eps       ncg     rms          rms(c)
DAV:   1    -0.231242051994E+04    0.23930E-01   -0.19992E+00  4496   0.135E+00    0.455E-01
RMM:   2    -0.231244806096E+04   -0.27541E-01   -0.29104E-01  6137   0.315E-01    0.243E-01
RMM:   3    -0.231244929697E+04   -0.12360E-02   -0.24296E-02  5522   0.899E-02    0.188E-01
RMM:   4    -0.231244941537E+04   -0.11840E-03   -0.30643E-03  4947   0.235E-02    0.178E-01
RMM:   5    -0.231244908704E+04    0.32833E-03   -0.57731E-04  4693   0.140E-02    0.727E-02
RMM:   6    -0.231244904402E+04    0.43015E-04   -0.23072E-04  4319   0.113E-02    0.168E-02
RMM:   7    -0.231244904418E+04   -0.16121E-06   -0.29135E-05  2922   0.631E-03
  57 F= -.23329470E+04 E0= -.23329470E+04  d E =-.204481E-01  mag=     3.0000
       N       E                     dE             d eps       ncg     rms          rms(c)
DAV:   1    -0.231237837027E+04    0.70674E-01   -0.62986E+00  4408   0.236E+00    0.755E-01
RMM:   2    -0.231246344040E+04   -0.85070E-01   -0.89451E-01  6149   0.526E-01    0.420E-01
RMM:   3    -0.231246748358E+04   -0.40432E-02   -0.75447E-02  5684   0.155E-01    0.276E-01
RMM:   4    -0.231246779321E+04   -0.30964E-03   -0.83946E-03  5342   0.373E-02    0.260E-01
RMM:   5    -0.231246742761E+04    0.36560E-03   -0.19194E-03  4991   0.249E-02    0.174E-01
RMM:   6    -0.231246711627E+04    0.31135E-03   -0.65791E-04  4984   0.168E-02    0.311E-02
RMM:   7    -0.231246711751E+04   -0.12464E-05   -0.63356E-05  3113   0.869E-03
  58 F= -.23329617E+04 E0= -.23329617E+04  d E =-.146828E-01  mag=     3.0000
       N       E                     dE             d eps       ncg     rms          rms(c)
DAV:   1    -0.231216797486E+04    0.29914E+00   -0.21902E+01  4408   0.440E+00    0.141E+00
RMM:   2    -0.231246595174E+04   -0.29798E+00   -0.31305E+00  6144   0.973E-01    0.826E-01
RMM:   3    -0.231248212938E+04   -0.16178E-01   -0.27697E-01  5739   0.297E-01    0.600E-01
RMM:   4    -0.231248170317E+04    0.42621E-03   -0.28784E-02  5587   0.691E-02    0.472E-01
RMM:   5    -0.231248105456E+04    0.64861E-03   -0.71064E-03  5195   0.471E-02    0.371E-01
RMM:   6    -0.231247958858E+04    0.14660E-02   -0.27868E-03  5269   0.322E-02    0.869E-02
RMM:   7    -0.231247957874E+04    0.98410E-05   -0.27612E-04  4178   0.163E-02    0.352E-02
RMM:   8    -0.231247956422E+04    0.14524E-04   -0.72220E-05  3188   0.622E-03    0.168E-02
RMM:   9    -0.231247956547E+04   -0.12556E-05   -0.30326E-05  2913   0.487E-03
  59 F= -.23329676E+04 E0= -.23329676E+04  d E =-.205890E-01  mag=     3.0000
       N       E                     dE             d eps       ncg     rms          rms(c)
DAV:   1    -0.231245134557E+04    0.28219E-01   -0.19558E+00  4496   0.131E+00    0.423E-01
RMM:   2    -0.231247790644E+04   -0.26561E-01   -0.27960E-01  6170   0.300E-01    0.237E-01
RMM:   3    -0.231247898138E+04   -0.10749E-02   -0.23454E-02  5589   0.869E-02    0.158E-01
RMM:   4    -0.231247911815E+04   -0.13678E-03   -0.28290E-03  4861   0.220E-02    0.155E-01
RMM:   5    -0.231247893386E+04    0.18429E-03   -0.56529E-04  4125   0.136E-02    0.887E-02
RMM:   6    -0.231247887866E+04    0.55208E-04   -0.19866E-04  4327   0.951E-03    0.383E-02
RMM:   7    -0.231247886564E+04    0.13020E-04   -0.66195E-05  2998   0.763E-03    0.151E-02
RMM:   8    -0.231247886321E+04    0.24262E-05   -0.12413E-05  2865   0.318E-03
  60 F= -.23329688E+04 E0= -.23329688E+04  d E =-.218730E-01  mag=     3.0000
       N       E                     dE             d eps       ncg     rms          rms(c)
DAV:   1    -0.231243958491E+04    0.39281E-01   -0.41334E+00  4432   0.187E+00    0.584E-01
RMM:   2    -0.231249390109E+04   -0.54316E-01   -0.56306E-01  6147   0.405E-01    0.398E-01
RMM:   3    -0.231249697253E+04   -0.30714E-02   -0.48696E-02  5777   0.124E-01    0.353E-01
RMM:   4    -0.231249638006E+04    0.59247E-03   -0.57204E-03  5360   0.320E-02    0.201E-01
RMM:   5    -0.231249604725E+04    0.33281E-03   -0.10652E-03  4686   0.185E-02    0.111E-01
RMM:   6    -0.231249593508E+04    0.11217E-03   -0.53567E-04  4920   0.153E-02    0.297E-02
RMM:   7    -0.231249593358E+04    0.15011E-05   -0.48108E-05  2943   0.733E-03
  61 F= -.23329832E+04 E0= -.23329832E+04  d E =-.143254E-01  mag=     3.0000
       N       E                     dE             d eps       ncg     rms          rms(c)
DAV:   1    -0.231200168208E+04    0.49425E+00   -0.37209E+01  4408   0.563E+00    0.177E+00
RMM:   2    -0.231250218851E+04   -0.50051E+00   -0.51664E+00  6180   0.122E+00    0.139E+00
RMM:   3    -0.231253437165E+04   -0.32183E-01   -0.50962E-01  5918   0.381E-01    0.116E+00
RMM:   4    -0.231252577114E+04    0.86005E-02   -0.48945E-02  5690   0.933E-02    0.572E-01
RMM:   5    -0.231252408885E+04    0.16823E-02   -0.12136E-02  5169   0.583E-02    0.393E-01
RMM:   6    -0.231252261144E+04    0.14774E-02   -0.51708E-03  5372   0.409E-02    0.137E-01
RMM:   7    -0.231252253866E+04    0.72783E-04   -0.60753E-04  4646   0.227E-02    0.579E-02
RMM:   8    -0.231252250301E+04    0.35647E-04   -0.16289E-04  3546   0.825E-03    0.236E-02
RMM:   9    -0.231252250474E+04   -0.17335E-05   -0.55275E-05  2935   0.571E-03
  62 F= -.23330010E+04 E0= -.23330010E+04  d E =-.321513E-01  mag=     3.0000
       N       E                     dE             d eps       ncg     rms          rms(c)
DAV:   1    -0.231243359760E+04    0.88905E-01   -0.71732E+00  4420   0.242E+00    0.812E-01
RMM:   2    -0.231254194995E+04   -0.10835E+00   -0.11070E+00  6117   0.541E-01    0.702E-01
RMM:   3    -0.231254696187E+04   -0.50119E-02   -0.93044E-02  5869   0.171E-01    0.562E-01
RMM:   4    -0.231254490900E+04    0.20529E-02   -0.10718E-02  5621   0.431E-02    0.257E-01
RMM:   5    -0.231254440220E+04    0.50680E-03   -0.21336E-03  4884   0.269E-02    0.154E-01
RMM:   6    -0.231254420704E+04    0.19516E-03   -0.10474E-03  5322   0.190E-02    0.620E-02
RMM:   7    -0.231254418689E+04    0.20151E-04   -0.11627E-04  3261   0.971E-03    0.234E-02
RMM:   8    -0.231254418525E+04    0.16483E-05   -0.27673E-05  2898   0.462E-03
  63 F= -.23330185E+04 E0= -.23330185E+04  d E =-.174531E-01  mag=     3.0000
       N       E                     dE             d eps       ncg     rms          rms(c)
DAV:   1    -0.231236181437E+04    0.18237E+00   -0.12825E+01  4408   0.325E+00    0.110E+00
RMM:   2    -0.231255804808E+04   -0.19623E+00   -0.19914E+00  6102   0.729E-01    0.106E+00
RMM:   3    -0.231256521016E+04   -0.71621E-02   -0.17220E-01  5875   0.233E-01    0.778E-01
RMM:   4    -0.231256111929E+04    0.40909E-02   -0.18750E-02  5656   0.574E-02    0.332E-01
RMM:   5    -0.231256025812E+04    0.86117E-03   -0.38995E-03  4954   0.365E-02    0.197E-01
RMM:   6    -0.231255998804E+04    0.27009E-03   -0.17937E-03  5512   0.247E-02    0.940E-02
RMM:   7    -0.231255992472E+04    0.63315E-04   -0.25444E-04  3930   0.132E-02    0.336E-02
RMM:   8    -0.231255991788E+04    0.68391E-05   -0.57316E-05  3026   0.552E-03
  64 F= -.23330280E+04 E0= -.23330280E+04  d E =-.270336E-01  mag=     3.0000
       N       E                     dE             d eps       ncg     rms          rms(c)
DAV:   1    -0.231253507812E+04    0.24847E-01   -0.26461E+00  4480   0.137E+00    0.542E-01
RMM:   2    -0.231258179433E+04   -0.46716E-01   -0.46669E-01  5981   0.325E-01    0.636E-01
RMM:   3    -0.231258244524E+04   -0.65092E-03   -0.45380E-02  5577   0.136E-01    0.366E-01
RMM:   4    -0.231258157612E+04    0.86912E-03   -0.45748E-03  5135   0.266E-02    0.151E-01
RMM:   5    -0.231258126019E+04    0.31593E-03   -0.77246E-04  4687   0.166E-02    0.723E-02
RMM:   6    -0.231258125565E+04    0.45361E-05   -0.24497E-04  4224   0.118E-02    0.244E-02
RMM:   7    -0.231258125538E+04    0.27269E-06   -0.32307E-05  2948   0.611E-03
  65 F= -.23330457E+04 E0= -.23330457E+04  d E =-.176300E-01  mag=     3.0000
       N       E                     dE             d eps       ncg     rms          rms(c)
DAV:   1    -0.231224589118E+04    0.33536E+00   -0.20484E+01  4408   0.381E+00    0.159E+00
RMM:   2    -0.231264097019E+04   -0.39508E+00   -0.38644E+00  6106   0.955E-01    0.220E+00
RMM:   3    -0.231262019450E+04    0.20776E-01   -0.33695E-01  5875   0.299E-01    0.928E-01
RMM:   4    -0.231261483639E+04    0.53581E-02   -0.36276E-02  5315   0.709E-02    0.414E-01
RMM:   5    -0.231261293536E+04    0.19010E-02   -0.56247E-03  5316   0.434E-02    0.307E-01
RMM:   6    -0.231261235428E+04    0.58108E-03   -0.37732E-03  5062   0.392E-02    0.107E-01
RMM:   7    -0.231261223787E+04    0.11640E-03   -0.47777E-04  4633   0.153E-02    0.436E-02
RMM:   8    -0.231261221796E+04    0.19914E-04   -0.88286E-05  3108   0.683E-03    0.238E-02
RMM:   9    -0.231261221908E+04   -0.11173E-05   -0.53183E-05  3008   0.495E-03
  66 F= -.23330655E+04 E0= -.23330655E+04  d E =-.375138E-01  mag=     3.0000
       N       E                     dE             d eps       ncg     rms          rms(c)
DAV:   1    -0.231260389231E+04    0.83256E-02   -0.12848E+00  4512   0.898E-01    0.379E-01
RMM:   2    -0.231262816582E+04   -0.24274E-01   -0.23534E-01  6263   0.222E-01    0.524E-01
RMM:   3    -0.231262749516E+04    0.67067E-03   -0.20874E-02  5668   0.763E-02    0.232E-01
RMM:   4    -0.231262718539E+04    0.30976E-03   -0.22319E-03  4121   0.164E-02    0.100E-01
RMM:   5    -0.231262705705E+04    0.12834E-03   -0.32152E-04  3983   0.999E-03    0.697E-02
RMM:   6    -0.231262703631E+04    0.20736E-04   -0.17647E-04  3295   0.921E-03    0.182E-02
RMM:   7    -0.231262703648E+04   -0.16620E-06   -0.22051E-05  2884   0.476E-03
  67 F= -.23330774E+04 E0= -.23330774E+04  d E =-.118933E-01  mag=     3.0000
       N       E                     dE             d eps       ncg     rms          rms(c)
DAV:   1    -0.231245998453E+04    0.16705E+00   -0.11540E+01  4408   0.269E+00    0.117E+00
RMM:   2    -0.231268789973E+04   -0.22792E+00   -0.21848E+00  6293   0.695E-01    0.172E+00
RMM:   3    -0.231267281566E+04    0.15084E-01   -0.19033E-01  6017   0.210E-01    0.638E-01
RMM:   4    -0.231267076873E+04    0.20469E-02   -0.20909E-02  5268   0.469E-02    0.303E-01
RMM:   5    -0.231266976323E+04    0.10055E-02   -0.28474E-03  5153   0.274E-02    0.254E-01
RMM:   6    -0.231266938197E+04    0.38126E-03   -0.23723E-03  4730   0.283E-02    0.837E-02
RMM:   7    -0.231266932067E+04    0.61298E-04   -0.26582E-04  3785   0.999E-03    0.349E-02
RMM:   8    -0.231266931297E+04    0.77012E-05   -0.43819E-05  2916   0.523E-03
  68 F= -.23331119E+04 E0= -.23331119E+04  d E =-.463264E-01  mag=     3.0000
       N       E                     dE             d eps       ncg     rms          rms(c)
DAV:   1    -0.231183799110E+04    0.83133E+00   -0.45638E+01  4408   0.542E+00    0.245E+00
RMM:   2    -0.231284412985E+04   -0.10061E+01   -0.97147E+00  6322   0.151E+00    0.348E+00
RMM:   3    -0.231274591098E+04    0.98219E-01   -0.82574E-01  6063   0.445E-01    0.112E+00
RMM:   4    -0.231273916260E+04    0.67484E-02   -0.87385E-02  5444   0.980E-02    0.610E-01
RMM:   5    -0.231273559942E+04    0.35632E-02   -0.10561E-02  5515   0.527E-02    0.515E-01
RMM:   6    -0.231273345853E+04    0.21409E-02   -0.11016E-02  5098   0.582E-02    0.144E-01
RMM:   7    -0.231273337407E+04    0.84454E-04   -0.14773E-03  5145   0.219E-02    0.903E-02
RMM:   8    -0.231273330112E+04    0.72953E-04   -0.25626E-04  3384   0.968E-03    0.379E-02
RMM:   9    -0.231273331700E+04   -0.15875E-04   -0.13703E-04  3380   0.621E-03    0.177E-02
RMM:  10    -0.231273333459E+04   -0.17593E-04   -0.20755E-05  2855   0.509E-03    0.760E-03
RMM:  11    -0.231273334817E+04   -0.13586E-04   -0.80427E-06  2830   0.268E-03    0.459E-03
RMM:  12    -0.231273335727E+04   -0.90974E-05   -0.34795E-06  2788   0.242E-03
  69 F= -.23331649E+04 E0= -.23331649E+04  d E =-.993997E-01  mag=     3.0000
       N       E                     dE             d eps       ncg     rms          rms(c)
DAV:   1    -0.230878109252E+04    0.39523E+01   -0.18179E+02  4408   0.111E+01    0.500E+00
RMM:   2    -0.231329453160E+04   -0.45134E+01   -0.44234E+01  6439   0.322E+00    0.759E+00
RMM:   3    -0.231268313422E+04    0.61140E+00   -0.38062E+00  6145   0.943E-01    0.237E+00
RMM:   4    -0.231265423769E+04    0.28897E-01   -0.36545E-01  5902   0.217E-01    0.130E+00
RMM:   5    -0.231263965104E+04    0.14587E-01   -0.43180E-02  5706   0.100E-01    0.106E+00
RMM:   6    -0.231262772369E+04    0.11927E-01   -0.51035E-02  5477   0.114E-01    0.422E-01
RMM:   7    -0.231262780496E+04   -0.81267E-04   -0.84413E-03  5555   0.550E-02    0.223E-01
RMM:   8    -0.231262769391E+04    0.11105E-03   -0.14489E-03  4648   0.222E-02    0.803E-02
RMM:   9    -0.231262770272E+04   -0.88101E-05   -0.45029E-04  4005   0.120E-02    0.419E-02
RMM:  10    -0.231262776393E+04   -0.61217E-04   -0.11451E-04  3387   0.808E-03    0.160E-02
RMM:  11    -0.231262780089E+04   -0.36955E-04   -0.29323E-05  2925   0.500E-03    0.909E-03
RMM:  12    -0.231262782191E+04   -0.21021E-04   -0.99046E-06  2822   0.371E-03    0.580E-03
RMM:  13    -0.231262784142E+04   -0.19513E-04   -0.80361E-06  2818   0.301E-03    0.338E-03
RMM:  14    -0.231262785229E+04   -0.10871E-04   -0.45667E-06  2803   0.270E-03    0.216E-03
RMM:  15    -0.231262785789E+04   -0.55965E-05   -0.30265E-06  2623   0.206E-03
  70 F= -.23330450E+04 E0= -.23330450E+04  d E =0.205321E-01  mag=     3.0000
       N       E                     dE             d eps       ncg     rms          rms(c)
DAV:   1    -0.230985301690E+04    0.27748E+01   -0.13155E+02  4408   0.949E+00    0.362E+00
RMM:   2    -0.231262882938E+04   -0.27758E+01   -0.29315E+01  6350   0.262E+00    0.185E+00
RMM:   3    -0.231277148003E+04   -0.14265E+00   -0.28676E+00  5805   0.763E-01    0.150E+00
RMM:   4    -0.231275894689E+04    0.12533E-01   -0.20753E-01  6093   0.150E-01    0.974E-01
RMM:   5    -0.231274934525E+04    0.96016E-02   -0.30700E-02  5336   0.845E-02    0.800E-01
RMM:   6    -0.231274911675E+04    0.22850E-03   -0.29850E-02  5929   0.768E-02    0.880E-01
RMM:   7    -0.231274231454E+04    0.68022E-02   -0.99271E-03  5824   0.488E-02    0.226E-01
RMM:   8    -0.231274221500E+04    0.99548E-04   -0.25564E-03  4893   0.200E-02    0.105E-01
RMM:   9    -0.231274229382E+04   -0.78821E-04   -0.63461E-04  3879   0.149E-02    0.360E-02
RMM:  10    -0.231274239723E+04   -0.10341E-03   -0.21178E-04  3550   0.768E-03    0.153E-02
RMM:  11    -0.231274244179E+04   -0.44567E-04   -0.25461E-05  2903   0.502E-03    0.813E-03
RMM:  12    -0.231274246838E+04   -0.26589E-04   -0.10262E-05  2841   0.337E-03    0.529E-03
RMM:  13    -0.231274248674E+04   -0.18354E-04   -0.62183E-06  2818   0.288E-03    0.324E-03
RMM:  14    -0.231274249598E+04   -0.92484E-05   -0.39619E-06  2763   0.236E-03
  71 F= -.23331716E+04 E0= -.23331716E+04  d E =-.106080E+00  mag=     3.0000
       N       E                     dE             d eps       ncg     rms          rms(c)
DAV:   1    -0.231273015288E+04    0.12334E-01   -0.23381E+00  4420   0.120E+00    0.479E-01
RMM:   2    -0.231277085630E+04   -0.40703E-01   -0.40226E-01  6306   0.301E-01    0.550E-01
RMM:   3    -0.231277014954E+04    0.70677E-03   -0.32587E-02  5880   0.903E-02    0.267E-01
RMM:   4    -0.231276962080E+04    0.52874E-03   -0.35626E-03  4651   0.204E-02    0.126E-01
RMM:   5    -0.231276937982E+04    0.24098E-03   -0.56384E-04  4389   0.129E-02    0.746E-02
RMM:   6    -0.231276935509E+04    0.24725E-04   -0.23719E-04  3570   0.105E-02    0.191E-02
RMM:   7    -0.231276935649E+04   -0.13946E-05   -0.30276E-05  2901   0.495E-03
  72 F= -.23331968E+04 E0= -.23331968E+04  d E =-.251473E-01  mag=     3.0000
       N       E                     dE             d eps       ncg     rms          rms(c)
DAV:   1    -0.231247254165E+04    0.29681E+00   -0.20972E+01  4408   0.359E+00    0.144E+00
RMM:   2    -0.231284708141E+04   -0.37454E+00   -0.37302E+00  6397   0.940E-01    0.158E+00
RMM:   3    -0.231284250569E+04    0.45757E-02   -0.32598E-01  6168   0.274E-01    0.735E-01
RMM:   4    -0.231283858723E+04    0.39185E-02   -0.33167E-02  5611   0.598E-02    0.383E-01
RMM:   5    -0.231283642833E+04    0.21589E-02   -0.52623E-03  5243   0.362E-02    0.235E-01
RMM:   6    -0.231283620060E+04    0.22773E-03   -0.28352E-03  4803   0.342E-02    0.745E-02
RMM:   7    -0.231283617047E+04    0.30128E-04   -0.34600E-04  3964   0.106E-02    0.374E-02
RMM:   8    -0.231283616466E+04    0.58108E-05   -0.62569E-05  3036   0.597E-03
  73 F= -.23332589E+04 E0= -.23332589E+04  d E =-.872763E-01  mag=     3.0000
       N       E                     dE             d eps       ncg     rms          rms(c)
DAV:   1    -0.231131724162E+04    0.15189E+01   -0.83793E+01  4408   0.723E+00    0.289E+00
RMM:   2    -0.231289468109E+04   -0.15774E+01   -0.15854E+01  6471   0.199E+00    0.308E+00
RMM:   3    -0.231286692632E+04    0.27755E-01   -0.14540E+00  6251   0.555E-01    0.145E+00
RMM:   4    -0.231285246559E+04    0.14461E-01   -0.14101E-01  5539   0.129E-01    0.799E-01
RMM:   5    -0.231284401681E+04    0.84488E-02   -0.24616E-02  5399   0.743E-02    0.524E-01
RMM:   6    -0.231284227595E+04    0.17409E-02   -0.15569E-02  5112   0.744E-02    0.192E-01
RMM:   7    -0.231284191696E+04    0.35899E-03   -0.19550E-03  5293   0.244E-02    0.871E-02
RMM:   8    -0.231284186064E+04    0.56323E-04   -0.37365E-04  3715   0.114E-02    0.429E-02
RMM:   9    -0.231284189330E+04   -0.32663E-04   -0.14893E-04  3440   0.703E-03    0.203E-02
RMM:  10    -0.231284192055E+04   -0.27251E-04   -0.26257E-05  2869   0.529E-03    0.858E-03
RMM:  11    -0.231284193833E+04   -0.17774E-04   -0.94366E-06  2849   0.307E-03    0.495E-03
RMM:  12    -0.231284194856E+04   -0.10234E-04   -0.41592E-06  2799   0.259E-03    0.351E-03
RMM:  13    -0.231284195767E+04   -0.91075E-05   -0.33362E-06  2729   0.200E-03
  74 F= -.23332564E+04 E0= -.23332564E+04  d E =-.847299E-01  mag=     3.0000
       N       E                     dE             d eps       ncg     rms          rms(c)
DAV:   1    -0.231236441213E+04    0.47754E+00   -0.28428E+01  4408   0.424E+00    0.158E+00
RMM:   2    -0.231285344844E+04   -0.48904E+00   -0.50950E+00  6411   0.112E+00    0.113E+00
RMM:   3    -0.231287975046E+04   -0.26302E-01   -0.43840E-01  6121   0.293E-01    0.109E+00
RMM:   4    -0.231286990606E+04    0.98444E-02   -0.49073E-02  6162   0.798E-02    0.490E-01
RMM:   5    -0.231286617236E+04    0.37337E-02   -0.78978E-03  5297   0.410E-02    0.259E-01
RMM:   6    -0.231286572440E+04    0.44796E-03   -0.48286E-03  5307   0.353E-02    0.139E-01
RMM:   7    -0.231286561325E+04    0.11114E-03   -0.75663E-04  4654   0.176E-02    0.558E-02
RMM:   8    -0.231286558622E+04    0.27032E-04   -0.17689E-04  3215   0.790E-03    0.235E-02
RMM:   9    -0.231286558971E+04   -0.34878E-05   -0.48189E-05  2963   0.442E-03
  75 F= -.23332847E+04 E0= -.23332847E+04  d E =-.113072E+00  mag=     3.0000
       N       E                     dE             d eps       ncg     rms          rms(c)
DAV:   1    -0.231291095926E+04   -0.45373E-01   -0.26630E+00  4432   0.122E+00    0.430E-01
RMM:   2    -0.231294104383E+04   -0.30085E-01   -0.31056E-01  6310   0.296E-01    0.368E-01
RMM:   3    -0.231294182269E+04   -0.77886E-03   -0.25905E-02  6016   0.836E-02    0.261E-01
RMM:   4    -0.231294115533E+04    0.66736E-03   -0.36256E-03  5400   0.237E-02    0.142E-01
RMM:   5    -0.231294084157E+04    0.31376E-03   -0.84707E-04  4857   0.165E-02    0.621E-02
RMM:   6    -0.231294080514E+04    0.36429E-04   -0.29201E-04  4301   0.109E-02    0.276E-02
RMM:   7    -0.231294079949E+04    0.56467E-05   -0.33136E-05  2888   0.515E-03
  76 F= -.23333587E+04 E0= -.23333587E+04  d E =-.740376E-01  mag=     3.0000
       N       E                     dE             d eps       ncg     rms          rms(c)
DAV:   1    -0.231284145842E+04    0.99347E-01   -0.24250E+01  4408   0.368E+00    0.130E+00
RMM:   2    -0.231311149175E+04   -0.27003E+00   -0.28283E+00  6350   0.867E-01    0.103E+00
RMM:   3    -0.231312378539E+04   -0.12294E-01   -0.25989E-01  6135   0.253E-01    0.830E-01
RMM:   4    -0.231311658165E+04    0.72037E-02   -0.31447E-02  6034   0.710E-02    0.465E-01
RMM:   5    -0.231311383675E+04    0.27449E-02   -0.91274E-03  5455   0.512E-02    0.224E-01
RMM:   6    -0.231311326146E+04    0.57529E-03   -0.36037E-03  5772   0.310E-02    0.936E-02
RMM:   7    -0.231311319998E+04    0.61480E-04   -0.28164E-04  3761   0.117E-02    0.376E-02
RMM:   8    -0.231311318910E+04    0.10878E-04   -0.88095E-05  3322   0.687E-03    0.156E-02
RMM:   9    -0.231311319285E+04   -0.37495E-05   -0.21196E-05  2900   0.483E-03
  77 F= -.23335279E+04 E0= -.23335279E+04  d E =-.243167E+00  mag=     3.0000
       N       E                     dE             d eps       ncg     rms          rms(c)
DAV:   1    -0.231180763747E+04    0.13056E+01   -0.99773E+01  4428   0.739E+00    0.275E+00
RMM:   2    -0.231290284258E+04   -0.10952E+01   -0.11914E+01  6462   0.164E+00    0.190E+00
RMM:   3    -0.231294945235E+04   -0.46610E-01   -0.10560E+00  5992   0.462E-01    0.160E+00
RMM:   4    -0.231292392380E+04    0.25529E-01   -0.12352E-01  6020   0.142E-01    0.116E+00
RMM:   5    -0.231291179360E+04    0.12130E-01   -0.50921E-02  5637   0.993E-02    0.651E-01
RMM:   6    -0.231290616139E+04    0.56322E-02   -0.20366E-02  5731   0.646E-02    0.259E-01
RMM:   7    -0.231290563987E+04    0.52152E-03   -0.16773E-03  4847   0.316E-02    0.926E-02
RMM:   8    -0.231290558843E+04    0.51437E-04   -0.58232E-04  4501   0.136E-02    0.374E-02
RMM:   9    -0.231290559768E+04   -0.92467E-05   -0.10908E-04  3290   0.865E-03    0.190E-02
RMM:  10    -0.231290560767E+04   -0.99854E-05   -0.28514E-05  2930   0.488E-03
  78 F= -.23333147E+04 E0= -.23333147E+04  d E =-.299844E-01  mag=     3.0000
       N       E                     dE             d eps       ncg     rms          rms(c)
DAV:   1    -0.231247621867E+04    0.42938E+00   -0.63691E+01  4436   0.567E+00    0.227E+00
RMM:   2    -0.231315926335E+04   -0.68304E+00   -0.75875E+00  6398   0.145E+00    0.170E+00
RMM:   3    -0.231317843929E+04   -0.19176E-01   -0.68563E-01  6125   0.399E-01    0.144E+00
RMM:   4    -0.231316261347E+04    0.15826E-01   -0.99516E-02  6147   0.123E-01    0.933E-01
RMM:   5    -0.231315007313E+04    0.12540E-01   -0.29587E-02  5582   0.809E-02    0.359E-01
RMM:   6    -0.231314910374E+04    0.96938E-03   -0.93090E-03  5275   0.512E-02    0.224E-01
RMM:   7    -0.231314871605E+04    0.38769E-03   -0.17921E-03  4793   0.292E-02    0.871E-02
RMM:   8    -0.231314862525E+04    0.90797E-04   -0.49156E-04  4332   0.115E-02    0.393E-02
RMM:   9    -0.231314862079E+04    0.44688E-05   -0.12189E-04  3145   0.620E-03    0.179E-02
RMM:  10    -0.231314862071E+04    0.71654E-07   -0.29816E-05  2902   0.493E-03
  79 F= -.23335620E+04 E0= -.23335620E+04  d E =-.277331E+00  mag=     3.0000
       N       E                     dE             d eps       ncg     rms          rms(c)
DAV:   1    -0.231313726152E+04    0.11359E-01   -0.16930E+00  4464   0.951E-01    0.351E-01
RMM:   2    -0.231315475185E+04   -0.17490E-01   -0.18858E-01  6360   0.220E-01    0.257E-01
RMM:   3    -0.231315545183E+04   -0.69998E-03   -0.16341E-02  5873   0.646E-02    0.203E-01
RMM:   4    -0.231315510410E+04    0.34773E-03   -0.23720E-03  4975   0.195E-02    0.140E-01
RMM:   5    -0.231315483687E+04    0.26723E-03   -0.68487E-04  4534   0.140E-02    0.533E-02
RMM:   6    -0.231315480996E+04    0.26904E-04   -0.23048E-04  3848   0.925E-03    0.299E-02
RMM:   7    -0.231315480304E+04    0.69254E-05   -0.29636E-05  2875   0.490E-03
  80 F= -.23335675E+04 E0= -.23335675E+04  d E =-.282759E+00  mag=     3.0000
       N       E                     dE             d eps       ncg     rms          rms(c)
DAV:   1    -0.231324504473E+04   -0.90235E-01   -0.24757E+00  4480   0.111E+00    0.481E-01
RMM:   2    -0.231326600270E+04   -0.20958E-01   -0.23995E-01  6158   0.254E-01    0.436E-01
RMM:   3    -0.231326600865E+04   -0.59489E-05   -0.18248E-02  5669   0.716E-02    0.361E-01
RMM:   4    -0.231326486133E+04    0.11473E-02   -0.29117E-03  5438   0.223E-02    0.139E-01
RMM:   5    -0.231326459484E+04    0.26648E-03   -0.80399E-04  4736   0.152E-02    0.736E-02
RMM:   6    -0.231326453664E+04    0.58201E-04   -0.28455E-04  4277   0.108E-02    0.284E-02
RMM:   7    -0.231326452861E+04    0.80362E-05   -0.40422E-05  2913   0.609E-03
  81 F= -.23336769E+04 E0= -.23336769E+04  d E =-.109402E+00  mag=     3.0000
       N       E                     dE             d eps       ncg     rms          rms(c)
DAV:   1    -0.231325925797E+04    0.52787E-02   -0.22693E+01  4414   0.330E+00    0.147E+00
RMM:   2    -0.231344478902E+04   -0.18553E+00   -0.21124E+00  6088   0.694E-01    0.143E+00
RMM:   3    -0.231344983554E+04   -0.50465E-02   -0.21128E-01  5769   0.227E-01    0.119E+00
RMM:   4    -0.231343743553E+04    0.12400E-01   -0.29244E-02  5951   0.679E-02    0.436E-01
RMM:   5    -0.231343495737E+04    0.24782E-02   -0.84221E-03  5423   0.464E-02    0.232E-01
RMM:   6    -0.231343437050E+04    0.58687E-03   -0.29685E-03  5432   0.292E-02    0.796E-02
RMM:   7    -0.231343430346E+04    0.67037E-04   -0.30471E-04  4208   0.131E-02    0.321E-02
RMM:   8    -0.231343428179E+04    0.21672E-04   -0.74389E-05  3325   0.685E-03    0.169E-02
RMM:   9    -0.231343427586E+04    0.59271E-05   -0.34916E-05  3068   0.546E-03
  82 F= -.23338458E+04 E0= -.23338458E+04  d E =-.278330E+00  mag=     3.0000
       N       E                     dE             d eps       ncg     rms          rms(c)
DAV:   1    -0.231353519424E+04   -0.10091E+00   -0.36391E+00  4512   0.141E+00    0.607E-01
RMM:   2    -0.231358101899E+04   -0.45825E-01   -0.44048E-01  6256   0.297E-01    0.833E-01
RMM:   3    -0.231357664490E+04    0.43741E-02   -0.36943E-02  5780   0.985E-02    0.342E-01
RMM:   4    -0.231357595847E+04    0.68643E-03   -0.51389E-03  4966   0.262E-02    0.145E-01
RMM:   5    -0.231357574474E+04    0.21373E-03   -0.74201E-04  4665   0.170E-02    0.107E-01
RMM:   6    -0.231357566411E+04    0.80630E-04   -0.47002E-04  4535   0.136E-02    0.318E-02
RMM:   7    -0.231357565619E+04    0.79202E-05   -0.59880E-05  3007   0.661E-03
  83 F= -.23339882E+04 E0= -.23339882E+04  d E =-.142411E+00  mag=     3.0000
       N       E                     dE             d eps       ncg     rms          rms(c)
DAV:   1    -0.231342854578E+04    0.14712E+00   -0.32579E+01  4408   0.421E+00    0.179E+00
RMM:   2    -0.231383935173E+04   -0.41081E+00   -0.39890E+00  6239   0.893E-01    0.242E+00
RMM:   3    -0.231381593968E+04    0.23412E-01   -0.38900E-01  5885   0.296E-01    0.112E+00
RMM:   4    -0.231380716621E+04    0.87735E-02   -0.45938E-02  5185   0.788E-02    0.448E-01
RMM:   5    -0.231380527800E+04    0.18882E-02   -0.70564E-03  5195   0.497E-02    0.313E-01
RMM:   6    -0.231380464811E+04    0.62989E-03   -0.43291E-03  5664   0.391E-02    0.118E-01
RMM:   7    -0.231380451247E+04    0.13564E-03   -0.56958E-04  4615   0.145E-02    0.478E-02
RMM:   8    -0.231380448787E+04    0.24601E-04   -0.10423E-04  3159   0.736E-03    0.258E-02
RMM:   9    -0.231380446944E+04    0.18428E-04   -0.72733E-05  3436   0.585E-03    0.161E-02
RMM:  10    -0.231380446553E+04    0.39109E-05   -0.21207E-05  2853   0.530E-03
  84 F= -.23342204E+04 E0= -.23342204E+04  d E =-.374591E+00  mag=     3.0000
       N       E                     dE             d eps       ncg     rms          rms(c)
DAV:   1    -0.231378480413E+04    0.19665E-01   -0.27882E+00  4576   0.123E+00    0.525E-01
RMM:   2    -0.231382024851E+04   -0.35444E-01   -0.33615E-01  6221   0.257E-01    0.768E-01
RMM:   3    -0.231381665617E+04    0.35923E-02   -0.29094E-02  5636   0.870E-02    0.295E-01
RMM:   4    -0.231381616834E+04    0.48783E-03   -0.38835E-03  4764   0.226E-02    0.127E-01
RMM:   5    -0.231381600394E+04    0.16440E-03   -0.59794E-04  4627   0.161E-02    0.958E-02
RMM:   6    -0.231381594074E+04    0.63202E-04   -0.31220E-04  4308   0.117E-02    0.219E-02
RMM:   7    -0.231381593779E+04    0.29523E-05   -0.36993E-05  2925   0.595E-03
  85 F= -.23342329E+04 E0= -.23342329E+04  d E =-.387120E+00  mag=     3.0000
       N       E                     dE             d eps       ncg     rms          rms(c)
[...]
RMM:   6    -0.231466026873E+04    0.12445E-04   -0.14202E-04  3454   0.842E-03    0.108E-02
RMM:   7    -0.231466026893E+04   -0.19383E-06   -0.18809E-05  2863   0.518E-03
 175 F= -.23351389E+04 E0= -.23351389E+04  d E =-.143210E-02  mag=     3.0000
       N       E                     dE             d eps       ncg     rms          rms(c)
DAV:   1    -0.231464501982E+04    0.15249E-01   -0.86946E-01  4408   0.811E-01    0.314E-01
RMM:   2    -0.231466086511E+04   -0.15845E-01   -0.15520E-01  6100   0.176E-01    0.358E-01
RMM:   3    -0.231466101873E+04   -0.15361E-03   -0.16302E-02  5478   0.612E-02    0.155E-01
RMM:   4    -0.231466084425E+04    0.17448E-03   -0.16688E-03  3954   0.138E-02    0.782E-02
RMM:   5    -0.231466075244E+04    0.91804E-04   -0.15941E-04  3380   0.892E-03    0.489E-02
RMM:   6    -0.231466073686E+04    0.15585E-04   -0.19312E-04  3695   0.949E-03    0.127E-02
RMM:   7    -0.231466073742E+04   -0.56403E-06   -0.24704E-05  2883   0.544E-03
 176 F= -.23351403E+04 E0= -.23351403E+04  d E =-.134546E-02  mag=     3.0000
       N       E                     dE             d eps       ncg     rms          rms(c)
DAV:   1    -0.231464527341E+04    0.15463E-01   -0.82695E-01  4408   0.791E-01    0.306E-01
RMM:   2    -0.231466034496E+04   -0.15072E-01   -0.14766E-01  6083   0.172E-01    0.349E-01
RMM:   3    -0.231466048843E+04   -0.14346E-03   -0.15491E-02  5465   0.597E-02    0.151E-01
RMM:   4    -0.231466032117E+04    0.16725E-03   -0.15890E-03  3886   0.135E-02    0.765E-02
RMM:   5    -0.231466023259E+04    0.88580E-04   -0.15263E-04  3348   0.878E-03    0.478E-02
RMM:   6    -0.231466021718E+04    0.15411E-04   -0.18590E-04  3657   0.937E-03    0.125E-02
RMM:   7    -0.231466021766E+04   -0.47639E-06   -0.23916E-05  2883   0.545E-03
 177 F= -.23351406E+04 E0= -.23351406E+04  d E =-.168116E-02  mag=     3.0000
       N       E                     dE             d eps       ncg     rms          rms(c)
DAV:   1    -0.231463884260E+04    0.21375E-01   -0.11980E+00  4408   0.959E-01    0.374E-01
RMM:   2    -0.231466096695E+04   -0.22124E-01   -0.21570E-01  6091   0.209E-01    0.444E-01
RMM:   3    -0.231466090878E+04    0.58167E-04   -0.22525E-02  5553   0.721E-02    0.181E-01
RMM:   4    -0.231466066654E+04    0.24225E-03   -0.23034E-03  4404   0.161E-02    0.904E-02
RMM:   5    -0.231466054000E+04    0.12653E-03   -0.21655E-04  3728   0.104E-02    0.590E-02
RMM:   6    -0.231466051357E+04    0.26436E-04   -0.27720E-04  4008   0.109E-02    0.157E-02
RMM:   7    -0.231466051373E+04   -0.15901E-06   -0.33593E-05  2906   0.614E-03
 178 F= -.23351420E+04 E0= -.23351420E+04  d E =-.134049E-02  mag=     3.0000
       N       E                     dE             d eps       ncg     rms          rms(c)
DAV:   1    -0.231465256204E+04    0.79515E-02   -0.41480E-01  4420   0.564E-01    0.220E-01
RMM:   2    -0.231466023442E+04   -0.76724E-02   -0.74889E-02  6077   0.124E-01    0.260E-01
RMM:   3    -0.231466021740E+04    0.17021E-04   -0.77803E-03  5016   0.425E-02    0.107E-01
RMM:   4    -0.231466013022E+04    0.87179E-04   -0.80318E-04  3204   0.994E-03    0.538E-02
RMM:   5    -0.231466008533E+04    0.44891E-04   -0.76104E-05  3012   0.644E-03    0.352E-02
RMM:   6    -0.231466007481E+04    0.10513E-04   -0.99433E-05  3109   0.727E-03    0.945E-03
RMM:   7    -0.231466007514E+04   -0.32679E-06   -0.14481E-05  2870   0.473E-03
 179 F= -.23351421E+04 E0= -.23351421E+04  d E =-.151574E-02  mag=     3.0000
       N       E                     dE             d eps       ncg     rms          rms(c)
DAV:   1    -0.231463655957E+04    0.23515E-01   -0.12853E+00  4408   0.988E-01    0.391E-01
RMM:   2    -0.231466106215E+04   -0.24503E-01   -0.23760E-01  6103   0.219E-01    0.484E-01
RMM:   3    -0.231466076745E+04    0.29470E-03   -0.24808E-02  5573   0.744E-02    0.186E-01
RMM:   4    -0.231466053052E+04    0.23693E-03   -0.25299E-03  4424   0.166E-02    0.935E-02
RMM:   5    -0.231466040145E+04    0.12908E-03   -0.21967E-04  3747   0.105E-02    0.640E-02
RMM:   6    -0.231466037186E+04    0.29585E-04   -0.30635E-04  4026   0.112E-02    0.173E-02
RMM:   7    -0.231466037186E+04   -0.25466E-08   -0.36034E-05  2906   0.605E-03
 180 F= -.23351435E+04 E0= -.23351435E+04  d E =-.140315E-02  mag=     3.0000
       N       E                     dE             d eps       ncg     rms          rms(c)
DAV:   1    -0.231465154453E+04    0.88273E-02   -0.45272E-01  4424   0.586E-01    0.232E-01
RMM:   2    -0.231466017555E+04   -0.86310E-02   -0.83825E-02  6088   0.131E-01    0.285E-01
RMM:   3    -0.231466007751E+04    0.98037E-04   -0.87000E-03  5113   0.441E-02    0.111E-01
RMM:   4    -0.231465999025E+04    0.87263E-04   -0.89266E-04  3206   0.102E-02    0.563E-02
RMM:   5    -0.231465994428E+04    0.45968E-04   -0.78703E-05  3020   0.654E-03    0.383E-02
RMM:   6    -0.231465993325E+04    0.11038E-04   -0.11149E-04  3110   0.750E-03    0.103E-02
RMM:   7    -0.231465993354E+04   -0.29738E-06   -0.15264E-05  2874   0.471E-03
 181 F= -.23351437E+04 E0= -.23351437E+04  d E =-.161987E-02  mag=     3.0000
       N       E                     dE             d eps       ncg     rms          rms(c)
DAV:   1    -0.231463724219E+04    0.22691E-01   -0.12474E+00  4408   0.982E-01    0.394E-01
RMM:   2    -0.231466093087E+04   -0.23689E-01   -0.23002E-01  6080   0.219E-01    0.485E-01
RMM:   3    -0.231466055855E+04    0.37232E-03   -0.23822E-02  5560   0.741E-02    0.192E-01
RMM:   4    -0.231466027722E+04    0.28133E-03   -0.24202E-03  4533   0.168E-02    0.918E-02
RMM:   5    -0.231466014811E+04    0.12912E-03   -0.22023E-04  3902   0.110E-02    0.630E-02
RMM:   6    -0.231466011550E+04    0.32602E-04   -0.28152E-04  4048   0.112E-02    0.161E-02
RMM:   7    -0.231466011503E+04    0.47736E-06   -0.33277E-05  2914   0.642E-03
 182 F= -.23351450E+04 E0= -.23351450E+04  d E =-.130147E-02  mag=     3.0000
       N       E                     dE             d eps       ncg     rms          rms(c)
DAV:   1    -0.231465898294E+04    0.11326E-02   -0.50565E-02  4760   0.198E-01    0.795E-02
RMM:   2    -0.231465995227E+04   -0.96933E-03   -0.94901E-03  6038   0.453E-02    0.943E-02
RMM:   3    -0.231465994372E+04    0.85442E-05   -0.95830E-04  3018   0.152E-02    0.403E-02
RMM:   4    -0.231465993132E+04    0.12404E-04   -0.10246E-04  2907   0.466E-03    0.194E-02
RMM:   5    -0.231465992563E+04    0.56924E-05   -0.10753E-05  2848   0.273E-03
 183 F= -.23351451E+04 E0= -.23351451E+04  d E =-.133680E-02  mag=     3.0000
       N       E                     dE             d eps       ncg     rms          rms(c)
DAV:   1    -0.231464639148E+04    0.13540E-01   -0.77871E-01  4408   0.791E-01    0.317E-01
RMM:   2    -0.231466060533E+04   -0.14214E-01   -0.13811E-01  6031   0.175E-01    0.375E-01
RMM:   3    -0.231466041403E+04    0.19130E-03   -0.14435E-02  5477   0.573E-02    0.155E-01
RMM:   4    -0.231466020987E+04    0.20416E-03   -0.14888E-03  4309   0.140E-02    0.724E-02
RMM:   5    -0.231466012867E+04    0.81201E-04   -0.14236E-04  3574   0.936E-03    0.469E-02
RMM:   6    -0.231466011136E+04    0.17306E-04   -0.16780E-04  3865   0.950E-03    0.119E-02
RMM:   7    -0.231466011142E+04   -0.54803E-07   -0.21293E-05  2886   0.561E-03
 184 F= -.23351461E+04 E0= -.23351461E+04  d E =-.103165E-02  mag=     3.0000
       N       E                     dE             d eps       ncg     rms          rms(c)
DAV:   1    -0.231465851493E+04    0.15964E-02   -0.76397E-02  4592   0.248E-01    0.985E-02
RMM:   2    -0.231465991264E+04   -0.13977E-02   -0.13692E-02  6029   0.557E-02    0.112E-01
RMM:   3    -0.231465990838E+04    0.42590E-05   -0.14040E-03  3385   0.196E-02    0.503E-02
RMM:   4    -0.231465988701E+04    0.21368E-04   -0.14981E-04  2913   0.565E-03    0.237E-02
RMM:   5    -0.231465987827E+04    0.87474E-05   -0.17931E-05  2847   0.356E-03
 185 F= -.23351461E+04 E0= -.23351461E+04  d E =-.106224E-02  mag=     3.0000
       N       E                     dE             d eps       ncg     rms          rms(c)
DAV:   1    -0.231464498456E+04    0.14902E-01   -0.81956E-01  4408   0.794E-01    0.318E-01
RMM:   2    -0.231466037920E+04   -0.15395E-01   -0.14948E-01  6109   0.177E-01    0.384E-01
RMM:   3    -0.231466022701E+04    0.15220E-03   -0.15662E-02  5527   0.591E-02    0.153E-01
RMM:   4    -0.231466004349E+04    0.18351E-03   -0.16122E-03  4111   0.138E-02    0.749E-02
RMM:   5    -0.231465995766E+04    0.85831E-04   -0.15083E-04  3508   0.902E-03    0.487E-02
RMM:   6    -0.231465993942E+04    0.18239E-04   -0.18614E-04  3766   0.954E-03    0.127E-02
RMM:   7    -0.231465993965E+04   -0.22276E-06   -0.23928E-05  2887   0.548E-03
 186 F= -.23351470E+04 E0= -.23351470E+04  d E =-.888164E-03  mag=     3.0000
       N       E                     dE             d eps       ncg     rms          rms(c)
DAV:   1    -0.231465816136E+04    0.17781E-02   -0.82824E-02  4520   0.252E-01    0.100E-01
RMM:   2    -0.231465972428E+04   -0.15629E-02   -0.15295E-02  6097   0.572E-02    0.116E-01
RMM:   3    -0.231465972271E+04    0.15710E-05   -0.15634E-03  3337   0.197E-02    0.505E-02
RMM:   4    -0.231465970296E+04    0.19745E-04   -0.16844E-04  2917   0.569E-03    0.248E-02
RMM:   5    -0.231465969332E+04    0.96439E-05   -0.17731E-05  2844   0.346E-03
 187 F= -.23351470E+04 E0= -.23351470E+04  d E =-.903586E-03  mag=     3.0000
       N       E                     dE             d eps       ncg     rms          rms(c)
DAV:   1    -0.231464700495E+04    0.12698E-01   -0.68846E-01  4408   0.722E-01    0.292E-01
RMM:   2    -0.231466021820E+04   -0.13213E-01   -0.12859E-01  6124   0.163E-01    0.350E-01
RMM:   3    -0.231466014397E+04    0.74236E-04   -0.13467E-02  5457   0.539E-02    0.142E-01
RMM:   4    -0.231465998804E+04    0.15592E-03   -0.13913E-03  3779   0.127E-02    0.694E-02
RMM:   5    -0.231465991607E+04    0.71970E-04   -0.12464E-04  3278   0.812E-03    0.446E-02
RMM:   6    -0.231465990097E+04    0.15104E-04   -0.15944E-04  3624   0.878E-03    0.114E-02
RMM:   7    -0.231465990166E+04   -0.69416E-06   -0.21199E-05  2872   0.530E-03
 188 F= -.23351480E+04 E0= -.23351480E+04  d E =-.993246E-03  mag=     3.0000
       N       E                     dE             d eps       ncg     rms          rms(c)
DAV:   1    -0.231465410151E+04    0.57995E-02   -0.28982E-01  4424   0.468E-01    0.189E-01
RMM:   2    -0.231465967605E+04   -0.55745E-02   -0.54452E-02  6122   0.105E-01    0.222E-01
RMM:   3    -0.231465966456E+04    0.11489E-04   -0.56086E-03  4691   0.359E-02    0.934E-02
RMM:   4    -0.231465959678E+04    0.67781E-04   -0.59240E-04  3055   0.879E-03    0.459E-02
RMM:   5    -0.231465956498E+04    0.31804E-04   -0.55247E-05  2902   0.564E-03    0.295E-02
RMM:   6    -0.231465955779E+04    0.71884E-05   -0.72594E-05  3012   0.634E-03
 189 F= -.23351482E+04 E0= -.23351482E+04  d E =-.115654E-02  mag=     3.0000
       N       E                     dE             d eps       ncg     rms          rms(c)
DAV:   1    -0.231464520234E+04    0.14363E-01   -0.75553E-01  4408   0.752E-01    0.310E-01
RMM:   2    -0.231466010090E+04   -0.14899E-01   -0.14559E-01  6025   0.171E-01    0.366E-01
RMM:   3    -0.231466004419E+04    0.56713E-04   -0.15007E-02  5460   0.553E-02    0.153E-01
RMM:   4    -0.231465987089E+04    0.17330E-03   -0.15920E-03  3963   0.132E-02    0.743E-02
RMM:   5    -0.231465978993E+04    0.80957E-04   -0.13327E-04  3221   0.824E-03    0.478E-02
RMM:   6    -0.231465977076E+04    0.19171E-04   -0.18302E-04  3802   0.936E-03    0.120E-02
RMM:   7    -0.231465977105E+04   -0.29310E-06   -0.22827E-05  2885   0.548E-03
 190 F= -.23351493E+04 E0= -.23351493E+04  d E =-.111739E-02  mag=     3.0000
       N       E                     dE             d eps       ncg     rms          rms(c)
DAV:   1    -0.231465569784E+04    0.40729E-02   -0.19497E-01  4496   0.382E-01    0.156E-01
RMM:   2    -0.231465954578E+04   -0.38479E-02   -0.37758E-02  6129   0.876E-02    0.180E-01
RMM:   3    -0.231465955444E+04   -0.86618E-05   -0.38371E-03  4086   0.284E-02    0.793E-02
RMM:   4    -0.231465950691E+04    0.47526E-04   -0.41645E-04  2983   0.775E-03    0.387E-02
RMM:   5    -0.231465948466E+04    0.22250E-04   -0.38406E-05  2867   0.479E-03    0.246E-02
RMM:   6    -0.231465947887E+04    0.57971E-05   -0.49329E-05  2916   0.536E-03
 191 F= -.23351495E+04 E0= -.23351495E+04  d E =-.128289E-02  mag=     3.0000
       N       E                     dE             d eps       ncg     rms          rms(c)
DAV:   1    -0.231465037879E+04    0.91059E-02   -0.49646E-01  4408   0.623E-01    0.260E-01
RMM:   2    -0.231465996179E+04   -0.95830E-02   -0.94356E-02  6016   0.142E-01    0.290E-01
RMM:   3    -0.231465997052E+04   -0.87363E-05   -0.96033E-03  5292   0.481E-02    0.135E-01
RMM:   4    -0.231465981494E+04    0.15559E-03   -0.10595E-03  3833   0.117E-02    0.614E-02
RMM:   5    -0.231465975648E+04    0.58461E-04   -0.10084E-04  3103   0.775E-03    0.375E-02
RMM:   6    -0.231465974341E+04    0.13069E-04   -0.12076E-04  3725   0.839E-03    0.977E-03
RMM:   7    -0.231465974352E+04   -0.11093E-06   -0.15040E-05  2865   0.523E-03
 192 F= -.23351505E+04 E0= -.23351505E+04  d E =-.975119E-03  mag=     3.0000
       N       E                     dE             d eps       ncg     rms          rms(c)
DAV:   1    -0.231465650113E+04    0.32423E-02   -0.15178E-01  4464   0.345E-01    0.143E-01
RMM:   2    -0.231465943383E+04   -0.29327E-02   -0.28950E-02  6114   0.796E-02    0.157E-01
RMM:   3    -0.231465944814E+04   -0.14309E-04   -0.29159E-03  4037   0.268E-02    0.755E-02
RMM:   4    -0.231465939876E+04    0.49379E-04   -0.32721E-04  2973   0.748E-03    0.346E-02
RMM:   5    -0.231465937970E+04    0.19060E-04   -0.34344E-05  2870   0.486E-03    0.211E-02
RMM:   6    -0.231465937475E+04    0.49513E-05   -0.38291E-05  2900   0.522E-03
 193 F= -.23351505E+04 E0= -.23351505E+04  d E =-.997976E-03  mag=     3.0000
       N       E                     dE             d eps       ncg     rms          rms(c)
DAV:   1    -0.231465259032E+04    0.67894E-02   -0.34145E-01  4408   0.495E-01    0.206E-01
RMM:   2    -0.231465951120E+04   -0.69209E-02   -0.67888E-02  6120   0.114E-01    0.241E-01
RMM:   3    -0.231465952577E+04   -0.14572E-04   -0.68992E-03  4903   0.374E-02    0.104E-01
RMM:   4    -0.231465945021E+04    0.75564E-04   -0.75099E-04  3068   0.909E-03    0.506E-02
RMM:   5    -0.231465941490E+04    0.35314E-04   -0.59923E-05  2892   0.540E-03    0.330E-02
RMM:   6    -0.231465940596E+04    0.89379E-05   -0.86401E-05  3087   0.639E-03
 194 F= -.23351511E+04 E0= -.23351511E+04  d E =-.580605E-03  mag=     3.0000
       N       E                     dE             d eps       ncg     rms          rms(c)
DAV:   1    -0.231463468625E+04    0.24729E-01   -0.11951E+00  4408   0.927E-01    0.386E-01
RMM:   2    -0.231465891394E+04   -0.24228E-01   -0.23750E-01  6225   0.214E-01    0.454E-01
RMM:   3    -0.231465896875E+04   -0.54807E-04   -0.24556E-02  5753   0.693E-02    0.192E-01
RMM:   4    -0.231465871931E+04    0.24944E-03   -0.25987E-03  4221   0.160E-02    0.945E-02
RMM:   5    -0.231465859718E+04    0.12214E-03   -0.20264E-04  3397   0.915E-03    0.612E-02
RMM:   6    -0.231465856798E+04    0.29196E-04   -0.29354E-04  4015   0.109E-02    0.151E-02
RMM:   7    -0.231465856983E+04   -0.18525E-05   -0.35131E-05  2902   0.596E-03
 195 F= -.23351513E+04 E0= -.23351513E+04  d E =-.769841E-03  mag=     3.0000
       N       E                     dE             d eps       ncg     rms          rms(c)
DAV:   1    -0.231465318448E+04    0.53835E-02   -0.28920E-01  4420   0.459E-01    0.189E-01
RMM:   2    -0.231465891072E+04   -0.57262E-02   -0.56519E-02  6157   0.106E-01    0.210E-01
RMM:   3    -0.231465897921E+04   -0.68493E-04   -0.57435E-03  4672   0.349E-02    0.982E-02
RMM:   4    -0.231465890749E+04    0.71720E-04   -0.63068E-04  3034   0.874E-03    0.472E-02
RMM:   5    -0.231465887606E+04    0.31430E-04   -0.54159E-05  2881   0.533E-03    0.296E-02
RMM:   6    -0.231465886965E+04    0.64110E-05   -0.72733E-05  3037   0.610E-03
 196 F= -.23351521E+04 E0= -.23351521E+04  d E =-.796573E-03  mag=     3.0000
       N       E                     dE             d eps       ncg     rms          rms(c)
DAV:   1    -0.231460700239E+04    0.51874E-01   -0.25967E+00  4408   0.138E+00    0.569E-01
RMM:   2    -0.231465848384E+04   -0.51481E-01   -0.50549E-01  6085   0.313E-01    0.655E-01
RMM:   3    -0.231465883585E+04   -0.35201E-03   -0.53340E-02  5716   0.994E-02    0.285E-01
RMM:   4    -0.231465826210E+04    0.57375E-03   -0.55187E-03  4852   0.234E-02    0.139E-01
RMM:   5    -0.231465798517E+04    0.27692E-03   -0.47921E-04  4259   0.137E-02    0.867E-02
RMM:   6    -0.231465792732E+04    0.57859E-04   -0.60024E-04  4534   0.146E-02    0.216E-02
RMM:   7    -0.231465792979E+04   -0.24791E-05   -0.68848E-05  2987   0.826E-03
 197 F= -.23351526E+04 E0= -.23351526E+04  d E =-.134119E-02  mag=     3.0000
       N       E                     dE             d eps       ncg     rms          rms(c)
DAV:   1    -0.231465427266E+04    0.36547E-02   -0.21848E-01  4452   0.399E-01    0.164E-01
RMM:   2    -0.231465860551E+04   -0.43329E-02   -0.42264E-02  6144   0.918E-02    0.195E-01
RMM:   3    -0.231465859506E+04    0.10453E-04   -0.42655E-03  4260   0.294E-02    0.846E-02
RMM:   4    -0.231465853396E+04    0.61095E-04   -0.46010E-04  3002   0.791E-03    0.400E-02
RMM:   5    -0.231465850984E+04    0.24130E-04   -0.39952E-05  2879   0.467E-03    0.261E-02
RMM:   6    -0.231465850381E+04    0.60279E-05   -0.54062E-05  2953   0.541E-03
 198 F= -.23351527E+04 E0= -.23351527E+04  d E =-.148547E-02  mag=     3.0000
       N       E                     dE             d eps       ncg     rms          rms(c)
DAV:   1    -0.231465455414E+04    0.39557E-02   -0.23387E-01  4420   0.419E-01    0.172E-01
RMM:   2    -0.231465898631E+04   -0.44322E-02   -0.43704E-02  6232   0.958E-02    0.184E-01
RMM:   3    -0.231465906040E+04   -0.74090E-04   -0.45134E-03  4535   0.323E-02    0.908E-02
RMM:   4    -0.231465898616E+04    0.74232E-04   -0.47956E-04  3021   0.853E-03    0.428E-02
RMM:   5    -0.231465895650E+04    0.29662E-04   -0.53055E-05  2890   0.567E-03    0.246E-02
RMM:   6    -0.231465895055E+04    0.59479E-05   -0.54774E-05  2983   0.599E-03
 199 F= -.23351536E+04 E0= -.23351536E+04  d E =-.877574E-03  mag=     3.0000
       N       E                     dE             d eps       ncg     rms          rms(c)
DAV:   1    -0.231463690571E+04    0.22051E-01   -0.11294E+00  4408   0.922E-01    0.383E-01
RMM:   2    -0.231465850102E+04   -0.21595E-01   -0.21296E-01  6093   0.209E-01    0.416E-01
RMM:   3    -0.231465878567E+04   -0.28465E-03   -0.22274E-02  5643   0.688E-02    0.200E-01
RMM:   4    -0.231465845915E+04    0.32652E-03   -0.23831E-03  4562   0.169E-02    0.934E-02
RMM:   5    -0.231465832291E+04    0.13624E-03   -0.23840E-04  3885   0.108E-02    0.543E-02
RMM:   6    -0.231465829693E+04    0.25974E-04   -0.24917E-04  4104   0.107E-02    0.142E-02
RMM:   7    -0.231465829727E+04   -0.34056E-06   -0.32799E-05  2913   0.658E-03
 200 F= -.23351539E+04 E0= -.23351539E+04  d E =-.116927E-02  mag=     3.0000
       N       E                     dE             d eps       ncg     rms          rms(c)
DAV:   1    -0.231465646109E+04    0.18358E-02   -0.12300E-01  4464   0.304E-01    0.126E-01
RMM:   2    -0.231465880933E+04   -0.23482E-02   -0.23032E-02  6097   0.691E-02    0.141E-01
RMM:   3    -0.231465882404E+04   -0.14712E-04   -0.23328E-03  3695   0.230E-02    0.670E-02
RMM:   4    -0.231465878313E+04    0.40913E-04   -0.25239E-04  2949   0.675E-03    0.306E-02
RMM:   5    -0.231465876873E+04    0.14397E-04   -0.26618E-05  2870   0.423E-03    0.182E-02
RMM:   6    -0.231465876634E+04    0.23865E-05   -0.26857E-05  2873   0.441E-03
 201 F= -.23351541E+04 E0= -.23351541E+04  d E =-.132718E-02  mag=     3.0000
