       N       E                     dE             d eps       ncg     rms          rms(c)
DAV:   1     0.127228496067E+05    0.12723E+05   -0.84697E+05  4640   0.143E+03
DAV:   2    -0.121711066810E+04   -0.13940E+05   -0.13357E+05  5120   0.325E+02
DAV:   3    -0.249948204997E+04   -0.12824E+04   -0.12708E+04  5520   0.107E+02
DAV:   4    -0.253043884859E+04   -0.30957E+02   -0.30782E+02  5680   0.213E+01
DAV:   5    -0.253142792753E+04   -0.98908E+00   -0.98718E+00  5840   0.312E+00    0.170E+02
RMM:   6    -0.149988516150E+04    0.10315E+04   -0.19478E+03  4507   0.380E+01    0.737E+01
RMM:   7    -0.167836350239E+04   -0.17848E+03   -0.29936E+02  5191   0.148E+01    0.580E+01
RMM:   8    -0.170889938984E+04   -0.30536E+02   -0.85336E+01  5469   0.843E+00    0.434E+01
RMM:   9    -0.179043675123E+04   -0.81537E+02   -0.56460E+01  5066   0.744E+00    0.389E+01
RMM:  10    -0.188443583544E+04   -0.93999E+02   -0.55502E+01  5327   0.724E+00    0.315E+01
RMM:  11    -0.197380598350E+04   -0.89370E+02   -0.39365E+01  5329   0.561E+00    0.217E+01
RMM:  12    -0.204677335978E+04   -0.72967E+02   -0.28707E+01  5045   0.455E+00    0.188E+01
RMM:  13    -0.211615685598E+04   -0.69383E+02   -0.29718E+01  4961   0.417E+00    0.146E+01
RMM:  14    -0.221678584058E+04   -0.10063E+03   -0.67275E+01  4543   0.614E+00    0.151E+01
RMM:  15    -0.226336789089E+04   -0.46582E+02   -0.31929E+01  5016   0.456E+00    0.866E+00
RMM:  16    -0.230107382468E+04   -0.37706E+02   -0.29929E+01  4543   0.378E+00    0.589E+00
RMM:  17    -0.231742201180E+04   -0.16348E+02   -0.16198E+01  4707   0.297E+00    0.427E+00
RMM:  18    -0.232124818807E+04   -0.38262E+01   -0.39698E+00  5177   0.141E+00    0.312E+00
RMM:  19    -0.232243415121E+04   -0.11860E+01   -0.86848E-01  5351   0.580E-01    0.208E+00
RMM:  20    -0.232396419671E+04   -0.15300E+01   -0.10477E+00  4616   0.582E-01    0.117E+00
RMM:  21    -0.232437184151E+04   -0.40764E+00   -0.41398E-01  4654   0.376E-01    0.915E-01
RMM:  22    -0.232462771986E+04   -0.25588E+00   -0.23261E-01  4702   0.243E-01    0.715E-01
RMM:  23    -0.232477446263E+04   -0.14674E+00   -0.10400E-01  4644   0.180E-01    0.471E-01
RMM:  24    -0.232485959108E+04   -0.85128E-01   -0.43594E-02  4697   0.123E-01    0.285E-01
RMM:  25    -0.232488459078E+04   -0.25000E-01   -0.87592E-03  4880   0.771E-02    0.154E-01
RMM:  26    -0.232490832015E+04   -0.23729E-01   -0.52098E-03  4518   0.427E-02    0.103E-01
RMM:  27    -0.232492809302E+04   -0.19773E-01   -0.38606E-03  4514   0.443E-02    0.744E-02
RMM:  28    -0.232493629812E+04   -0.82051E-02   -0.19028E-03  4795   0.314E-02    0.435E-02
RMM:  29    -0.232494120733E+04   -0.49092E-02   -0.11997E-03  4325   0.219E-02    0.262E-02
RMM:  30    -0.232494272362E+04   -0.15163E-02   -0.37686E-04  4121   0.162E-02    0.170E-02
RMM:  31    -0.232494331217E+04   -0.58855E-03   -0.18487E-04  3979   0.907E-03    0.108E-02
RMM:  32    -0.232494345051E+04   -0.13834E-03   -0.42956E-05  3465   0.744E-03    0.563E-03
RMM:  33    -0.232494351021E+04   -0.59704E-04   -0.18060E-05  3072   0.359E-03    0.266E-03
RMM:  34    -0.232494354063E+04   -0.30417E-04   -0.72139E-06  2897   0.322E-03    0.155E-03
RMM:  35    -0.232494355270E+04   -0.12073E-04   -0.39910E-06  2659   0.225E-03    0.974E-04
RMM:  36    -0.232494355699E+04   -0.42818E-05   -0.19791E-06  2533   0.175E-03
   1 F= -.23463688E+04 E0= -.23463687E+04  d E =-.150876E-03  mag=     2.9988
       N       E                     dE             d eps       ncg     rms          rms(c)
DAV:   1    -0.232493353803E+04    0.10015E-01   -0.19482E+00  4480   0.585E-01    0.345E-01
RMM:   2    -0.232493514038E+04   -0.16024E-02   -0.11774E-02  4899   0.458E-02    0.425E-01
RMM:   3    -0.232493387998E+04    0.12604E-02   -0.41282E-03  5567   0.292E-02    0.324E-01
RMM:   4    -0.232493311324E+04    0.76673E-03   -0.12077E-03  4202   0.150E-02    0.206E-01
RMM:   5    -0.232493276482E+04    0.34843E-03   -0.60621E-04  3594   0.112E-02    0.974E-02
RMM:   6    -0.232493269790E+04    0.66911E-04   -0.18365E-04  3658   0.679E-03    0.571E-02
RMM:   7    -0.232493269097E+04    0.69346E-05   -0.69592E-05  2841   0.431E-03
   2 F= -.23463583E+04 E0= -.23463582E+04  d E =-.195955E-03  mag=     2.9985
       N       E                     dE             d eps       ncg     rms          rms(c)
DAV:   1    -0.232494885970E+04   -0.16162E-01   -0.77760E+00  4480   0.116E+00    0.652E-01
RMM:   2    -0.232495376924E+04   -0.49095E-02   -0.39375E-02  5110   0.865E-02    0.780E-01
RMM:   3    -0.232494985144E+04    0.39178E-02   -0.13823E-02  6118   0.540E-02    0.613E-01
RMM:   4    -0.232494718349E+04    0.26680E-02   -0.45647E-03  5203   0.291E-02    0.418E-01
RMM:   5    -0.232494568239E+04    0.15011E-02   -0.22810E-03  4701   0.210E-02    0.184E-01
RMM:   6    -0.232494547247E+04    0.20992E-03   -0.65160E-04  4491   0.115E-02    0.112E-01
RMM:   7    -0.232494543486E+04    0.37616E-04   -0.25717E-04  3400   0.767E-03    0.777E-02
RMM:   8    -0.232494537326E+04    0.61594E-04   -0.64771E-05  3039   0.539E-03    0.209E-02
RMM:   9    -0.232494537576E+04   -0.24933E-05   -0.18639E-05  2926   0.291E-03
   3 F= -.23463704E+04 E0= -.23463703E+04  d E =-.107808E-03  mag=     2.9989
       N       E                     dE             d eps       ncg     rms          rms(c)
DAV:   1    -0.232495624373E+04   -0.10870E-01   -0.37708E+00  4640   0.898E-01    0.393E-01
RMM:   2    -0.232495787293E+04   -0.16292E-02   -0.14023E-02  4552   0.575E-02    0.416E-01
RMM:   3    -0.232495647505E+04    0.13979E-02   -0.43135E-03  5064   0.314E-02    0.267E-01
RMM:   4    -0.232495600176E+04    0.47329E-03   -0.14377E-03  4614   0.180E-02    0.211E-01
RMM:   5    -0.232495572590E+04    0.27586E-03   -0.55399E-04  3503   0.100E-02    0.102E-01
RMM:   6    -0.232495569124E+04    0.34663E-04   -0.13231E-04  3166   0.686E-03    0.555E-02
RMM:   7    -0.232495566786E+04    0.23377E-04   -0.51881E-05  2822   0.424E-03    0.324E-02
RMM:   8    -0.232495565855E+04    0.93179E-05   -0.17150E-05  2814   0.260E-03
   4 F= -.23463785E+04 E0= -.23463785E+04  d E =-.963794E-04  mag=     2.9992
       N       E                     dE             d eps       ncg     rms          rms(c)
DAV:   1    -0.232489911648E+04    0.56551E-01   -0.79265E+00  4480   0.144E+00    0.679E-01
RMM:   2    -0.232490197639E+04   -0.28599E-02   -0.44847E-02  4900   0.107E-01    0.764E-01
RMM:   3    -0.232489902316E+04    0.29532E-02   -0.12728E-02  5584   0.594E-02    0.595E-01
RMM:   4    -0.232489693674E+04    0.20864E-02   -0.69040E-03  5484   0.364E-02    0.424E-01
RMM:   5    -0.232489621279E+04    0.72395E-03   -0.37672E-03  5331   0.261E-02    0.373E-01
RMM:   6    -0.232489489226E+04    0.13205E-02   -0.88811E-04  4509   0.131E-02    0.717E-02
RMM:   7    -0.232489488387E+04    0.83898E-05   -0.20680E-04  3347   0.723E-03    0.685E-02
RMM:   8    -0.232489483397E+04    0.49902E-04   -0.66606E-05  2926   0.473E-03    0.193E-02
RMM:   9    -0.232489483288E+04    0.10881E-05   -0.27610E-05  3043   0.289E-03
   5 F= -.23463231E+04 E0= -.23463230E+04  d E =-.224032E-03  mag=     2.9983
       N       E                     dE             d eps       ncg     rms          rms(c)
DAV:   1    -0.232497376138E+04   -0.78927E-01   -0.41743E+00  4480   0.106E+00    0.509E-01
RMM:   2    -0.232497390262E+04   -0.14124E-03   -0.24460E-02  4579   0.735E-02    0.412E-01
RMM:   3    -0.232497366708E+04    0.23554E-03   -0.62650E-03  5664   0.392E-02    0.436E-01
RMM:   4    -0.232497196242E+04    0.17047E-02   -0.31275E-03  5265   0.233E-02    0.244E-01
RMM:   5    -0.232497186611E+04    0.96310E-04   -0.16030E-03  4932   0.177E-02    0.246E-01
RMM:   6    -0.232497124442E+04    0.62169E-03   -0.46789E-04  3538   0.997E-03    0.556E-02
RMM:   7    -0.232497123742E+04    0.70043E-05   -0.10377E-04  3007   0.507E-03    0.470E-02
RMM:   8    -0.232497121075E+04    0.26667E-04   -0.33478E-05  2686   0.349E-03    0.130E-02
RMM:   9    -0.232497121197E+04   -0.12179E-05   -0.13763E-05  2871   0.214E-03
   6 F= -.23463988E+04 E0= -.23463987E+04  d E =-.720699E-04  mag=     2.9991
       N       E                     dE             d eps       ncg     rms          rms(c)
DAV:   1    -0.232491670375E+04    0.54507E-01   -0.77223E+00  4480   0.131E+00    0.700E-01
RMM:   2    -0.232491698604E+04   -0.28229E-03   -0.40398E-02  4516   0.861E-02    0.384E-01
RMM:   3    -0.232491567595E+04    0.13101E-02   -0.61944E-03  5450   0.435E-02    0.346E-01
RMM:   4    -0.232491734839E+04   -0.16724E-02   -0.49658E-03  5543   0.271E-02    0.480E-01
RMM:   5    -0.232491490761E+04    0.24408E-02   -0.20124E-03  4903   0.196E-02    0.140E-01
RMM:   6    -0.232491496314E+04   -0.55532E-04   -0.65687E-04  3426   0.107E-02    0.163E-01
RMM:   7    -0.232491473836E+04    0.22478E-03   -0.19331E-04  3296   0.707E-03    0.404E-02
RMM:   8    -0.232491475916E+04   -0.20804E-04   -0.82998E-05  3006   0.508E-03    0.464E-02
RMM:   9    -0.232491474247E+04    0.16690E-04   -0.28286E-05  2870   0.384E-03    0.181E-02
RMM:  10    -0.232491475237E+04   -0.98982E-05   -0.80880E-06  2760   0.223E-03
   7 F= -.23463382E+04 E0= -.23463380E+04  d E =-.346605E-03  mag=     2.9976
       N       E                     dE             d eps       ncg     rms          rms(c)
DAV:   1    -0.232494929312E+04   -0.34551E-01   -0.40013E+00  4480   0.987E-01    0.419E-01
RMM:   2    -0.232494967891E+04   -0.38579E-03   -0.21613E-02  4045   0.691E-02    0.329E-01
RMM:   3    -0.232495100523E+04   -0.13263E-02   -0.48276E-03  4907   0.372E-02    0.529E-01
RMM:   4    -0.232494843866E+04    0.25666E-02   -0.29815E-03  4907   0.224E-02    0.172E-01
RMM:   5    -0.232494821626E+04    0.22241E-03   -0.92209E-04  4503   0.134E-02    0.857E-02
RMM:   6    -0.232494816768E+04    0.48578E-04   -0.17277E-04  3024   0.652E-03    0.569E-02
RMM:   7    -0.232494813616E+04    0.31516E-04   -0.38035E-05  2872   0.378E-03    0.211E-02
RMM:   8    -0.232494814018E+04   -0.40176E-05   -0.23865E-05  2760   0.283E-03
   8 F= -.23463728E+04 E0= -.23463727E+04  d E =-.230583E-03  mag=     2.9979
       N       E                     dE             d eps       ncg     rms          rms(c)
DAV:   1    -0.232491421048E+04    0.33926E-01   -0.83292E+00  4480   0.134E+00    0.619E-01
RMM:   2    -0.232491114509E+04    0.30654E-02   -0.37631E-02  4064   0.848E-02    0.419E-01
RMM:   3    -0.232491713098E+04   -0.59859E-02   -0.12640E-02  5442   0.541E-02    0.939E-01
RMM:   4    -0.232490829426E+04    0.88367E-02   -0.76902E-03  5374   0.349E-02    0.115E-01
RMM:   5    -0.232490856607E+04   -0.27181E-03   -0.17169E-03  4273   0.192E-02    0.147E-01
RMM:   6    -0.232490829473E+04    0.27134E-03   -0.42251E-04  3564   0.956E-03    0.409E-02
RMM:   7    -0.232490828659E+04    0.81448E-05   -0.10465E-04  3212   0.502E-03    0.414E-02
RMM:   8    -0.232490827759E+04    0.89923E-05   -0.39957E-05  2843   0.371E-03
   9 F= -.23463344E+04 E0= -.23463344E+04  d E =-.984492E-04  mag=     2.9987
       N       E                     dE             d eps       ncg     rms          rms(c)
DAV:   1    -0.232495277744E+04   -0.44491E-01   -0.40333E+00  4480   0.820E-01    0.383E-01
RMM:   2    -0.232495269088E+04    0.86561E-04   -0.14873E-02  4038   0.515E-02    0.323E-01
RMM:   3    -0.232495360075E+04   -0.90987E-03   -0.40847E-03  5555   0.271E-02    0.461E-01
RMM:   4    -0.232495162883E+04    0.19719E-02   -0.23834E-03  4632   0.203E-02    0.207E-01
RMM:   5    -0.232495129477E+04    0.33406E-03   -0.94325E-04  3835   0.150E-02    0.943E-02
RMM:   6    -0.232495122407E+04    0.70702E-04   -0.16586E-04  3315   0.768E-03    0.230E-02
RMM:   7    -0.232495122666E+04   -0.25939E-05   -0.21757E-05  2753   0.336E-03
  10 F= -.23463794E+04 E0= -.23463794E+04  d E =-.107992E-03  mag=     2.9990
       N       E                     dE             d eps       ncg     rms          rms(c)
DAV:   1    -0.232493659254E+04    0.14632E-01   -0.79078E+00  4480   0.112E+00    0.599E-01
RMM:   2    -0.232493663651E+04   -0.43966E-04   -0.30112E-02  4484   0.725E-02    0.420E-01
RMM:   3    -0.232493793125E+04   -0.12947E-02   -0.86122E-03  5849   0.442E-02    0.577E-01
RMM:   4    -0.232493509613E+04    0.28351E-02   -0.51514E-03  5223   0.330E-02    0.350E-01
RMM:   5    -0.232493427997E+04    0.81615E-03   -0.20170E-03  4364   0.177E-02    0.186E-01
RMM:   6    -0.232493400565E+04    0.27432E-03   -0.58951E-04  4278   0.122E-02    0.636E-02
RMM:   7    -0.232493400015E+04    0.55058E-05   -0.11081E-04  3289   0.569E-03    0.525E-02
RMM:   8    -0.232493400448E+04   -0.43380E-05   -0.75172E-05  2915   0.463E-03
  11 F= -.23463569E+04 E0= -.23463568E+04  d E =-.205991E-03  mag=     2.9985
       N       E                     dE             d eps       ncg     rms          rms(c)
DAV:   1    -0.232491002115E+04    0.23979E-01   -0.42363E+00  4320   0.835E-01    0.430E-01
RMM:   2    -0.232490899563E+04    0.10255E-02   -0.19618E-02  4157   0.572E-02    0.263E-01
RMM:   3    -0.232490858938E+04    0.40625E-03   -0.35573E-03  4813   0.322E-02    0.306E-01
RMM:   4    -0.232490798144E+04    0.60794E-03   -0.19690E-03  4659   0.186E-02    0.183E-01
RMM:   5    -0.232490771716E+04    0.26428E-03   -0.75201E-04  4465   0.116E-02    0.102E-01
RMM:   6    -0.232490767801E+04    0.39150E-04   -0.21965E-04  3306   0.749E-03    0.720E-02
RMM:   7    -0.232490763970E+04    0.38309E-04   -0.64247E-05  2823   0.475E-03    0.455E-02
RMM:   8    -0.232490762441E+04    0.15291E-04   -0.29439E-05  2675   0.298E-03    0.232E-02
RMM:   9    -0.232490762407E+04    0.33292E-06   -0.12255E-05  2838   0.271E-03
  12 F= -.23463311E+04 E0= -.23463310E+04  d E =-.149819E-03  mag=     2.9987
       N       E                     dE             d eps       ncg     rms          rms(c)
DAV:   1    -0.232496029103E+04   -0.52667E-01   -0.82315E+00  4480   0.133E+00    0.627E-01
RMM:   2    -0.232495798370E+04    0.23073E-02   -0.49065E-02  4323   0.100E-01    0.532E-01
RMM:   3    -0.232495627726E+04    0.17064E-02   -0.95623E-03  5177   0.555E-02    0.511E-01
RMM:   4    -0.232495458393E+04    0.16933E-02   -0.48329E-03  5315   0.279E-02    0.344E-01
RMM:   5    -0.232495450662E+04    0.77314E-04   -0.29336E-03  5109   0.233E-02    0.313E-01
RMM:   6    -0.232495350004E+04    0.10066E-02   -0.10587E-03  4248   0.146E-02    0.959E-02
RMM:   7    -0.232495346845E+04    0.31584E-04   -0.23377E-04  3265   0.760E-03    0.772E-02
RMM:   8    -0.232495340484E+04    0.63618E-04   -0.86805E-05  2913   0.526E-03    0.277E-02
RMM:   9    -0.232495340525E+04   -0.41483E-06   -0.43955E-05  3212   0.370E-03
  13 F= -.23463810E+04 E0= -.23463809E+04  d E =-.153437E-03  mag=     2.9986
       N       E                     dE             d eps       ncg     rms          rms(c)
DAV:   1    -0.232491262112E+04    0.40784E-01   -0.26866E+00  4320   0.764E-01    0.472E-01
RMM:   2    -0.232491035550E+04    0.22656E-02   -0.22376E-02  4397   0.622E-02    0.380E-01
RMM:   3    -0.232490969502E+04    0.66048E-03   -0.46909E-03  4893   0.358E-02    0.404E-01
RMM:   4    -0.232490862959E+04    0.10654E-02   -0.21814E-03  4869   0.185E-02    0.238E-01
RMM:   5    -0.232490852594E+04    0.10365E-03   -0.12912E-03  4673   0.154E-02    0.203E-01
RMM:   6    -0.232490814598E+04    0.37996E-03   -0.56431E-04  3664   0.108E-02    0.884E-02
RMM:   7    -0.232490806512E+04    0.80860E-04   -0.95762E-05  3049   0.569E-03    0.344E-02
RMM:   8    -0.232490805411E+04    0.11013E-04   -0.32347E-05  2609   0.354E-03    0.206E-02
RMM:   9    -0.232490804940E+04    0.47092E-05   -0.18773E-05  2748   0.242E-03
  14 F= -.23463337E+04 E0= -.23463336E+04  d E =-.151426E-03  mag=     2.9987
       N       E                     dE             d eps       ncg     rms          rms(c)
DAV:   1    -0.232496900207E+04   -0.60948E-01   -0.12144E+00  4640   0.442E-01    0.500E-01
RMM:   2    -0.232496674835E+04    0.22537E-02   -0.20188E-02  4606   0.543E-02    0.374E-01
RMM:   3    -0.232496597157E+04    0.77678E-03   -0.40930E-03  4706   0.325E-02    0.360E-01
RMM:   4    -0.232496552931E+04    0.44226E-03   -0.21497E-03  4586   0.176E-02    0.286E-01
RMM:   5    -0.232496521548E+04    0.31382E-03   -0.97796E-04  4355   0.147E-02    0.181E-01
RMM:   6    -0.232496499131E+04    0.22417E-03   -0.56621E-04  3903   0.113E-02    0.112E-01
RMM:   7    -0.232496485394E+04    0.13737E-03   -0.10257E-04  3100   0.580E-03    0.376E-02
RMM:   8    -0.232496483818E+04    0.15762E-04   -0.27479E-05  2613   0.352E-03    0.170E-02
RMM:   9    -0.232496483383E+04    0.43487E-05   -0.95237E-06  2532   0.238E-03
  15 F= -.23463898E+04 E0= -.23463898E+04  d E =-.149756E-03  mag=     2.9988
       N       E                     dE             d eps       ncg     rms          rms(c)
DAV:   1    -0.232493870697E+04    0.26131E-01   -0.58746E-01  4160   0.320E-01    0.284E-01
RMM:   2    -0.232493834955E+04    0.35742E-03   -0.53767E-03  4122   0.285E-02    0.203E-01
RMM:   3    -0.232493846494E+04   -0.11539E-03   -0.13144E-03  4048   0.180E-02    0.249E-01
RMM:   4    -0.232493816332E+04    0.30162E-03   -0.78705E-04  3776   0.113E-02    0.168E-01
RMM:   5    -0.232493805489E+04    0.10843E-03   -0.37894E-04  3703   0.988E-03    0.104E-01
RMM:   6    -0.232493796972E+04    0.85172E-04   -0.16773E-04  2996   0.646E-03    0.560E-02
RMM:   7    -0.232493793285E+04    0.36871E-04   -0.27345E-05  2682   0.360E-03    0.161E-02
RMM:   8    -0.232493793226E+04    0.58401E-06   -0.97109E-06  2344   0.226E-03
  16 F= -.23463633E+04 E0= -.23463632E+04  d E =-.171503E-03  mag=     2.9987
       N       E                     dE             d eps       ncg     rms          rms(c)
DAV:   1    -0.232494693740E+04   -0.90045E-02   -0.11305E+00  4320   0.431E-01    0.316E-01
RMM:   2    -0.232494736140E+04   -0.42401E-03   -0.51918E-03  4065   0.295E-02    0.209E-01
RMM:   3    -0.232494804266E+04   -0.68126E-03   -0.17416E-03  4731   0.197E-02    0.287E-01
RMM:   4    -0.232494752857E+04    0.51409E-03   -0.13092E-03  4580   0.174E-02    0.188E-01
RMM:   5    -0.232494732803E+04    0.20054E-03   -0.50045E-04  3253   0.882E-03    0.126E-01
RMM:   6    -0.232494715753E+04    0.17050E-03   -0.15396E-04  3109   0.707E-03    0.216E-02
RMM:   7    -0.232494715235E+04    0.51817E-05   -0.13255E-05  2574   0.238E-03
  17 F= -.23463723E+04 E0= -.23463723E+04  d E =-.137337E-03  mag=     2.9988
       N       E                     dE             d eps       ncg     rms          rms(c)
DAV:   1    -0.232498326332E+04   -0.36106E-01   -0.58745E-01  4560   0.315E-01    0.299E-01
RMM:   2    -0.232498295262E+04    0.31070E-03   -0.72242E-03  4409   0.318E-02    0.210E-01
RMM:   3    -0.232498261563E+04    0.33699E-03   -0.11304E-03  4400   0.179E-02    0.167E-01
RMM:   4    -0.232498271997E+04   -0.10434E-03   -0.87402E-04  4113   0.142E-02    0.175E-01
RMM:   5    -0.232498252156E+04    0.19841E-03   -0.41776E-04  3708   0.101E-02    0.129E-01
RMM:   6    -0.232498237534E+04    0.14622E-03   -0.16622E-04  3051   0.643E-03    0.424E-02
RMM:   7    -0.232498235476E+04    0.20576E-04   -0.18270E-05  2613   0.321E-03    0.859E-03
RMM:   8    -0.232498235612E+04   -0.13632E-05   -0.61371E-06  2325   0.187E-03
  18 F= -.23464073E+04 E0= -.23464073E+04  d E =-.144705E-03  mag=     2.9988
       N       E                     dE             d eps       ncg     rms          rms(c)
DAV:   1    -0.232489808195E+04    0.84273E-01   -0.11803E+00  4800   0.465E-01    0.457E-01
RMM:   2    -0.232489645015E+04    0.16318E-02   -0.17170E-02  4663   0.469E-02    0.313E-01
RMM:   3    -0.232489544133E+04    0.10088E-02   -0.27144E-03  4436   0.301E-02    0.222E-01
RMM:   4    -0.232489587833E+04   -0.43700E-03   -0.19926E-03  4849   0.186E-02    0.292E-01
RMM:   5    -0.232489506794E+04    0.81040E-03   -0.85952E-04  4394   0.137E-02    0.790E-02
RMM:   6    -0.232489510332E+04   -0.35382E-04   -0.24547E-04  3235   0.771E-03    0.947E-02
RMM:   7    -0.232489500246E+04    0.10086E-03   -0.87165E-05  2908   0.532E-03    0.318E-02
RMM:   8    -0.232489499710E+04    0.53588E-05   -0.20854E-05  2544   0.257E-03
  19 F= -.23463206E+04 E0= -.23463205E+04  d E =-.151210E-03  mag=     2.9988
       N       E                     dE             d eps       ncg     rms          rms(c)
DAV:   1    -0.232494116591E+04   -0.46163E-01   -0.58627E-01  4800   0.370E-01    0.292E-01
RMM:   2    -0.232494067750E+04    0.48841E-03   -0.53050E-03  4311   0.315E-02    0.196E-01
RMM:   3    -0.232494130509E+04   -0.62758E-03   -0.16942E-03  4391   0.218E-02    0.299E-01
RMM:   4    -0.232494047498E+04    0.83011E-03   -0.80726E-04  4159   0.135E-02    0.144E-01
RMM:   5    -0.232494052829E+04   -0.53312E-04   -0.54002E-04  3728   0.109E-02    0.137E-01
RMM:   6    -0.232494030661E+04    0.22169E-03   -0.18126E-04  3241   0.724E-03    0.211E-02
RMM:   7    -0.232494030202E+04    0.45859E-05   -0.19945E-05  2671   0.276E-03
  20 F= -.23463655E+04 E0= -.23463654E+04  d E =-.152729E-03  mag=     2.9987
       N       E                     dE             d eps       ncg     rms          rms(c)
DAV:   1    -0.232494662090E+04   -0.63143E-02   -0.11679E+00  4560   0.503E-01    0.428E-01
RMM:   2    -0.232494686606E+04   -0.24516E-03   -0.77595E-03  4736   0.382E-02    0.358E-01
RMM:   3    -0.232494726081E+04   -0.39475E-03   -0.40633E-03  5603   0.288E-02    0.411E-01
RMM:   4    -0.232494630921E+04    0.95159E-03   -0.21101E-03  4925   0.214E-02    0.287E-01
RMM:   5    -0.232494586152E+04    0.44769E-03   -0.11744E-03  4150   0.146E-02    0.186E-01
RMM:   6    -0.232494547537E+04    0.38615E-03   -0.37053E-04  3811   0.105E-02    0.380E-02
RMM:   7    -0.232494547903E+04   -0.36567E-05   -0.56292E-05  2863   0.397E-03
  21 F= -.23463708E+04 E0= -.23463708E+04  d E =-.145123E-03  mag=     2.9988
       N       E                     dE             d eps       ncg     rms          rms(c)
DAV:   1    -0.232493458150E+04    0.10894E-01   -0.61850E-01  4720   0.366E-01    0.336E-01
RMM:   2    -0.232493403794E+04    0.54356E-03   -0.49693E-03  4277   0.309E-02    0.222E-01
RMM:   3    -0.232493421884E+04   -0.18090E-03   -0.18986E-03  4880   0.206E-02    0.235E-01
RMM:   4    -0.232493379630E+04    0.42254E-03   -0.12080E-03  4503   0.168E-02    0.145E-01
RMM:   5    -0.232493356045E+04    0.23585E-03   -0.32479E-04  3748   0.887E-03    0.766E-02
RMM:   6    -0.232493355945E+04    0.99695E-06   -0.12972E-04  2835   0.592E-03    0.725E-02
RMM:   7    -0.232493351218E+04    0.47277E-04   -0.28288E-05  2613   0.323E-03    0.180E-02
RMM:   8    -0.232493351342E+04   -0.12411E-05   -0.12171E-05  2502   0.229E-03
  22 F= -.23463579E+04 E0= -.23463579E+04  d E =-.150289E-03  mag=     2.9987
       N       E                     dE             d eps       ncg     rms          rms(c)
DAV:   1    -0.232493783448E+04   -0.43223E-02   -0.12795E+00  5120   0.522E-01    0.606E-01
RMM:   2    -0.232493407625E+04    0.37582E-02   -0.25411E-02  4887   0.641E-02    0.455E-01
RMM:   3    -0.232493323960E+04    0.83666E-03   -0.66817E-03  5156   0.455E-02    0.451E-01
RMM:   4    -0.232493275677E+04    0.48283E-03   -0.37001E-03  5329   0.251E-02    0.405E-01
RMM:   5    -0.232493126547E+04    0.14913E-02   -0.14728E-03  4472   0.170E-02    0.185E-01
RMM:   6    -0.232493112889E+04    0.13659E-03   -0.74499E-04  3738   0.127E-02    0.136E-01
RMM:   7    -0.232493095333E+04    0.17556E-03   -0.14689E-04  3216   0.669E-03    0.344E-02
RMM:   8    -0.232493094772E+04    0.56117E-05   -0.43170E-05  2759   0.409E-03
  23 F= -.23463571E+04 E0= -.23463570E+04  d E =-.146095E-03  mag=     2.9988
       N       E                     dE             d eps       ncg     rms          rms(c)
DAV:   1    -0.232494286877E+04   -0.11915E-01   -0.65315E-01  4960   0.380E-01    0.449E-01
RMM:   2    -0.232494079722E+04    0.20715E-02   -0.15407E-02  4812   0.487E-02    0.319E-01
RMM:   3    -0.232493981547E+04    0.98175E-03   -0.32377E-03  4835   0.328E-02    0.261E-01
RMM:   4    -0.232494018242E+04   -0.36695E-03   -0.19406E-03  5018   0.184E-02    0.307E-01
RMM:   5    -0.232493926129E+04    0.92113E-03   -0.86253E-04  4292   0.135E-02    0.148E-01
RMM:   6    -0.232493914480E+04    0.11649E-03   -0.38555E-04  3274   0.856E-03    0.101E-01
RMM:   7    -0.232493906021E+04    0.84592E-04   -0.69098E-05  2972   0.491E-03    0.225E-02
RMM:   8    -0.232493905769E+04    0.25188E-05   -0.21321E-05  2577   0.311E-03
  24 F= -.23463643E+04 E0= -.23463642E+04  d E =-.168837E-03  mag=     2.9987
       N       E                     dE             d eps       ncg     rms          rms(c)
DAV:   1    -0.232494262945E+04   -0.35692E-02   -0.11916E+00  4640   0.507E-01    0.449E-01
RMM:   2    -0.232494169129E+04    0.93816E-03   -0.11904E-02  4553   0.444E-02    0.289E-01
RMM:   3    -0.232494157358E+04    0.11771E-03   -0.27787E-03  4541   0.285E-02    0.327E-01
RMM:   4    -0.232494153322E+04    0.40366E-04   -0.19487E-03  4654   0.166E-02    0.307E-01
RMM:   5    -0.232494086185E+04    0.67136E-03   -0.83612E-04  4493   0.137E-02    0.118E-01
RMM:   6    -0.232494078583E+04    0.76026E-04   -0.32681E-04  3379   0.905E-03    0.894E-02
RMM:   7    -0.232494070122E+04    0.84605E-04   -0.59626E-05  2980   0.492E-03    0.229E-02
RMM:   8    -0.232494070151E+04   -0.29022E-06   -0.21741E-05  2665   0.301E-03
  25 F= -.23463660E+04 E0= -.23463659E+04  d E =-.135078E-03  mag=     2.9988
       N       E                     dE             d eps       ncg     rms          rms(c)
DAV:   1    -0.232494578414E+04   -0.50829E-02   -0.61094E-01  4800   0.387E-01    0.388E-01
RMM:   2    -0.232494489001E+04    0.89413E-03   -0.11214E-02  4764   0.432E-02    0.311E-01
RMM:   3    -0.232494404949E+04    0.84052E-03   -0.26892E-03  4541   0.269E-02    0.266E-01
RMM:   4    -0.232494386044E+04    0.18905E-03   -0.14690E-03  4454   0.153E-02    0.223E-01
RMM:   5    -0.232494360188E+04    0.25857E-03   -0.57094E-04  4019   0.111E-02    0.128E-01
RMM:   6    -0.232494345470E+04    0.14718E-03   -0.23510E-04  3318   0.804E-03    0.621E-02
RMM:   7    -0.232494342849E+04    0.26215E-04   -0.53320E-05  2797   0.431E-03    0.392E-02
RMM:   8    -0.232494340900E+04    0.19490E-04   -0.19792E-05  2524   0.296E-03    0.102E-02
RMM:   9    -0.232494340723E+04    0.17620E-05   -0.47267E-06  2415   0.170E-03
  26 F= -.23463681E+04 E0= -.23463680E+04  d E =-.145327E-03  mag=     2.9988
       N       E                     dE             d eps       ncg     rms          rms(c)
DAV:   1    -0.232493432848E+04    0.90805E-02   -0.12243E+00  4960   0.499E-01    0.614E-01
RMM:   2    -0.232492993190E+04    0.43966E-02   -0.29127E-02  4842   0.602E-02    0.460E-01
RMM:   3    -0.232492821517E+04    0.17167E-02   -0.62688E-03  5024   0.427E-02    0.388E-01
RMM:   4    -0.232492768343E+04    0.53174E-03   -0.35249E-03  5253   0.249E-02    0.319E-01
RMM:   5    -0.232492681641E+04    0.86702E-03   -0.11268E-03  4732   0.152E-02    0.128E-01
RMM:   6    -0.232492683478E+04   -0.18367E-04   -0.56573E-04  3753   0.115E-02    0.134E-01
RMM:   7    -0.232492663020E+04    0.20458E-03   -0.16729E-04  3280   0.733E-03    0.518E-02
RMM:   8    -0.232492660781E+04    0.22392E-04   -0.36948E-05  2659   0.349E-03    0.242E-02
RMM:   9    -0.232492660029E+04    0.75169E-05   -0.14484E-05  2635   0.272E-03
  27 F= -.23463525E+04 E0= -.23463524E+04  d E =-.155589E-03  mag=     2.9988
       N       E                     dE             d eps       ncg     rms          rms(c)
DAV:   1    -0.232493001099E+04   -0.34032E-02   -0.58425E-01  4640   0.338E-01    0.281E-01
RMM:   2    -0.232492960321E+04    0.40778E-03   -0.49168E-03  4086   0.250E-02    0.193E-01
RMM:   3    -0.232492974697E+04   -0.14376E-03   -0.12047E-03  4495   0.165E-02    0.231E-01
RMM:   4    -0.232492949743E+04    0.24953E-03   -0.87728E-04  4064   0.129E-02    0.168E-01
RMM:   5    -0.232492934811E+04    0.14932E-03   -0.37680E-04  3485   0.876E-03    0.128E-01
RMM:   6    -0.232492921523E+04    0.13288E-03   -0.15797E-04  2878   0.617E-03    0.423E-02
RMM:   7    -0.232492920081E+04    0.14421E-04   -0.23491E-05  2684   0.317E-03    0.185E-02
RMM:   8    -0.232492919801E+04    0.27981E-05   -0.81799E-06  2362   0.203E-03
  28 F= -.23463546E+04 E0= -.23463545E+04  d E =-.144340E-03  mag=     2.9988
       N       E                     dE             d eps       ncg     rms          rms(c)
DAV:   1    -0.232495712216E+04   -0.27921E-01   -0.11693E+00  4480   0.474E-01    0.374E-01
RMM:   2    -0.232495680619E+04    0.31597E-03   -0.63304E-03  4143   0.314E-02    0.253E-01
RMM:   3    -0.232495722870E+04   -0.42251E-03   -0.21434E-03  4280   0.209E-02    0.336E-01
RMM:   4    -0.232495675088E+04    0.47782E-03   -0.15394E-03  4411   0.154E-02    0.235E-01
RMM:   5    -0.232495653704E+04    0.21384E-03   -0.69415E-04  4039   0.122E-02    0.144E-01
RMM:   6    -0.232495628493E+04    0.25211E-03   -0.25605E-04  3490   0.859E-03    0.358E-02
RMM:   7    -0.232495627998E+04    0.49441E-05   -0.34481E-05  2730   0.343E-03
  29 F= -.23463814E+04 E0= -.23463813E+04  d E =-.153743E-03  mag=     2.9987
       N       E                     dE             d eps       ncg     rms          rms(c)
DAV:   1    -0.232493895904E+04    0.17326E-01   -0.59846E-01  4560   0.340E-01    0.234E-01
RMM:   2    -0.232493904756E+04   -0.88520E-04   -0.26415E-03  3663   0.217E-02    0.145E-01
RMM:   3    -0.232493994045E+04   -0.89289E-03   -0.11202E-03  4676   0.138E-02    0.299E-01
RMM:   4    -0.232493899643E+04    0.94401E-03   -0.67775E-04  3898   0.115E-02    0.723E-02
RMM:   5    -0.232493899271E+04    0.37265E-05   -0.17168E-04  3008   0.608E-03    0.678E-02
RMM:   6    -0.232493894924E+04    0.43461E-04   -0.38453E-05  2547   0.355E-03    0.145E-02
RMM:   7    -0.232493894846E+04    0.78122E-06   -0.85918E-06  2382   0.182E-03
  30 F= -.23463641E+04 E0= -.23463641E+04  d E =-.154568E-03  mag=     2.9987
       N       E                     dE             d eps       ncg     rms          rms(c)
DAV:   1    -0.232494117051E+04   -0.22213E-02   -0.12079E+00  4720   0.488E-01    0.408E-01
RMM:   2    -0.232494044908E+04    0.72142E-03   -0.11170E-02  4095   0.398E-02    0.266E-01
RMM:   3    -0.232494058518E+04   -0.13609E-03   -0.26289E-03  4693   0.263E-02    0.303E-01
RMM:   4    -0.232493988629E+04    0.69888E-03   -0.18799E-03  4692   0.197E-02    0.171E-01
RMM:   5    -0.232493970302E+04    0.18327E-03   -0.57905E-04  4057   0.116E-02    0.106E-01
RMM:   6    -0.232493962871E+04    0.74313E-04   -0.21084E-04  3219   0.745E-03    0.740E-02
RMM:   7    -0.232493958020E+04    0.48510E-04   -0.48491E-05  2800   0.442E-03    0.383E-02
RMM:   8    -0.232493956810E+04    0.12100E-04   -0.15263E-05  2471   0.239E-03    0.136E-02
RMM:   9    -0.232493956676E+04    0.13435E-05   -0.42430E-06  2380   0.167E-03
  31 F= -.23463650E+04 E0= -.23463649E+04  d E =-.144858E-03  mag=     2.9988
