       N       E                     dE             d eps       ncg     rms          rms(c)
DAV:   1     0.127189883477E+05    0.12719E+05   -0.82865E+05  4432   0.144E+03
DAV:   2    -0.106910493707E+04   -0.13788E+05   -0.13203E+05  5312   0.330E+02
DAV:   3    -0.247527520477E+04   -0.14062E+04   -0.13929E+04  5360   0.111E+02
DAV:   4    -0.252108316759E+04   -0.45808E+02   -0.45589E+02  6688   0.298E+01
DAV:   5    -0.252191229310E+04   -0.82913E+00   -0.82759E+00  5528   0.321E+00    0.171E+02
RMM:   6    -0.147913295217E+04    0.10428E+04   -0.19494E+03  4393   0.387E+01    0.728E+01
RMM:   7    -0.165374373753E+04   -0.17461E+03   -0.27762E+02  4976   0.139E+01    0.507E+01
RMM:   8    -0.170902427836E+04   -0.55281E+02   -0.66162E+01  5110   0.810E+00    0.425E+01
RMM:   9    -0.178534922138E+04   -0.76325E+02   -0.68808E+01  4948   0.773E+00    0.360E+01
RMM:  10    -0.192408959547E+04   -0.13874E+03   -0.59557E+01  5095   0.736E+00    0.194E+01
RMM:  11    -0.204214593190E+04   -0.11806E+03   -0.55911E+01  4855   0.608E+00    0.206E+01
RMM:  12    -0.212787664340E+04   -0.85731E+02   -0.45261E+01  4882   0.520E+00    0.153E+01
RMM:  13    -0.223158705595E+04   -0.10371E+03   -0.75322E+01  4443   0.628E+00    0.150E+01
RMM:  14    -0.229385310622E+04   -0.62266E+02   -0.58314E+01  4601   0.552E+00    0.620E+00
RMM:  15    -0.230923048423E+04   -0.15377E+02   -0.18267E+01  4768   0.357E+00    0.359E+00
RMM:  16    -0.231242153215E+04   -0.31910E+01   -0.42544E+00  5484   0.123E+00    0.339E+00
RMM:  17    -0.231419611779E+04   -0.17746E+01   -0.11335E+00  4609   0.717E-01    0.271E+00
RMM:  18    -0.231474549790E+04   -0.54938E+00   -0.31656E-01  4978   0.383E-01    0.282E+00
RMM:  19    -0.231485492654E+04   -0.10943E+00   -0.75900E-02  5504   0.131E-01    0.260E+00
RMM:  20    -0.231553603750E+04   -0.68111E+00   -0.49946E-01  4393   0.340E-01    0.147E+00
RMM:  21    -0.231632990352E+04   -0.79387E+00   -0.81310E-01  4500   0.406E-01    0.169E+00
RMM:  22    -0.231657612866E+04   -0.24623E+00   -0.29915E-01  4604   0.283E-01    0.101E+00
RMM:  23    -0.231674009789E+04   -0.16397E+00   -0.10269E-01  4874   0.167E-01    0.706E-01
RMM:  24    -0.231682600818E+04   -0.85910E-01   -0.52147E-02  4613   0.120E-01    0.358E-01
RMM:  25    -0.231687348945E+04   -0.47481E-01   -0.23773E-02  4479   0.919E-02    0.208E-01
RMM:  26    -0.231688520956E+04   -0.11720E-01   -0.55343E-03  4664   0.576E-02    0.137E-01
RMM:  27    -0.231689977517E+04   -0.14566E-01   -0.39873E-03  4418   0.399E-02    0.971E-02
RMM:  28    -0.231690926878E+04   -0.94936E-02   -0.23204E-03  4492   0.367E-02    0.797E-02
RMM:  29    -0.231691377376E+04   -0.45050E-02   -0.12536E-03  4358   0.250E-02    0.365E-02
RMM:  30    -0.231691553360E+04   -0.17598E-02   -0.46745E-04  4127   0.170E-02    0.317E-02
RMM:  31    -0.231691636912E+04   -0.83551E-03   -0.21455E-04  3862   0.104E-02    0.140E-02
RMM:  32    -0.231691670977E+04   -0.34065E-03   -0.10213E-04  3655   0.909E-03    0.653E-03
RMM:  33    -0.231691680873E+04   -0.98964E-04   -0.41365E-05  3263   0.556E-03    0.632E-03
RMM:  34    -0.231691684126E+04   -0.32533E-04   -0.13659E-05  2880   0.424E-03    0.221E-03
RMM:  35    -0.231691685031E+04   -0.90501E-05   -0.54144E-06  2764   0.277E-03
   1 F= -.23374771E+04 E0= -.23374771E+04  d E =-.233748E+04  mag=     3.9998
       N       E                     dE             d eps       ncg     rms          rms(c)
DAV:   1    -0.231724222916E+04   -0.32539E+00   -0.49316E+01  4752   0.452E+00    0.158E+00
RMM:   2    -0.231735872162E+04   -0.11649E+00   -0.16677E+00  5727   0.699E-01    0.135E+00
RMM:   3    -0.231735595995E+04    0.27617E-02   -0.11427E-01  5730   0.201E-01    0.192E+00
RMM:   4    -0.231733003085E+04    0.25929E-01   -0.40888E-02  5594   0.868E-02    0.659E-01
RMM:   5    -0.231732415527E+04    0.58756E-02   -0.26786E-02  4964   0.740E-02    0.134E-01
RMM:   6    -0.231732390146E+04    0.25381E-03   -0.19174E-03  4691   0.411E-02    0.705E-02
RMM:   7    -0.231732389098E+04    0.10481E-04   -0.39697E-04  4145   0.105E-02    0.385E-02
RMM:   8    -0.231732391618E+04   -0.25203E-04   -0.77935E-05  3143   0.805E-03    0.143E-02
RMM:   9    -0.231732393489E+04   -0.18710E-04   -0.23682E-05  2932   0.465E-03    0.743E-03
RMM:  10    -0.231732394422E+04   -0.93313E-05   -0.82015E-06  2841   0.376E-03
   2 F= -.23378843E+04 E0= -.23378843E+04  d E =-.407182E+00  mag=     4.0000
       N       E                     dE             d eps       ncg     rms          rms(c)
DAV:   1    -0.231732397669E+04   -0.41800E-04   -0.46374E-03  4880   0.433E-02    0.147E-02
RMM:   2    -0.231732398825E+04   -0.11558E-04   -0.12429E-04  3211   0.715E-03    0.131E-02
RMM:   3    -0.231732398965E+04   -0.13984E-05   -0.12596E-05  2828   0.370E-03
   3 F= -.23378843E+04 E0= -.23378843E+04  d E =-.407222E+00  mag=     4.0000
       N       E                     dE             d eps       ncg     rms          rms(c)
DAV:   1    -0.231765320923E+04   -0.32922E+00   -0.28822E+01  4488   0.364E+00    0.105E+00
RMM:   2    -0.231776835098E+04   -0.11514E+00   -0.12731E+00  5953   0.595E-01    0.773E-01
RMM:   3    -0.231777697910E+04   -0.86281E-02   -0.12620E-01  5579   0.187E-01    0.112E+00
RMM:   4    -0.231777065054E+04    0.63286E-02   -0.18779E-02  5675   0.565E-02    0.435E-01
RMM:   5    -0.231776885348E+04    0.17971E-02   -0.78525E-03  4624   0.402E-02    0.212E-01
RMM:   6    -0.231776863767E+04    0.21581E-03   -0.15713E-03  4445   0.274E-02    0.591E-02
RMM:   7    -0.231776864117E+04   -0.34983E-05   -0.16936E-04  3471   0.827E-03    0.259E-02
RMM:   8    -0.231776864132E+04   -0.15083E-06   -0.42525E-05  2957   0.579E-03
   4 F= -.23383287E+04 E0= -.23383287E+04  d E =-.444425E+00  mag=     4.0000
       N       E                     dE             d eps       ncg     rms          rms(c)
DAV:   1    -0.231778812760E+04   -0.19486E-01   -0.70309E+01  4408   0.568E+00    0.167E+00
RMM:   2    -0.231808049604E+04   -0.29237E+00   -0.32254E+00  5949   0.978E-01    0.137E+00
RMM:   3    -0.231810146972E+04   -0.20974E-01   -0.33182E-01  5666   0.305E-01    0.180E+00
RMM:   4    -0.231808351400E+04    0.17956E-01   -0.49944E-02  5741   0.938E-02    0.595E-01
RMM:   5    -0.231807946264E+04    0.40514E-02   -0.19487E-02  4707   0.637E-02    0.304E-01
RMM:   6    -0.231807910929E+04    0.35335E-03   -0.34222E-03  4716   0.433E-02    0.122E-01
RMM:   7    -0.231807907427E+04    0.35020E-04   -0.46370E-04  4122   0.119E-02    0.414E-02
RMM:   8    -0.231807907409E+04    0.17836E-06   -0.10456E-04  3246   0.818E-03    0.190E-02
RMM:   9    -0.231807908238E+04   -0.82917E-05   -0.27036E-05  2951   0.440E-03
   5 F= -.23386400E+04 E0= -.23386400E+04  d E =-.755737E+00  mag=     4.0000
       N       E                     dE             d eps       ncg     rms          rms(c)
DAV:   1    -0.231809805946E+04   -0.18985E-01   -0.88074E+00  4552   0.228E+00    0.880E-01
RMM:   2    -0.231822308828E+04   -0.12503E+00   -0.13185E+00  6130   0.502E-01    0.513E-01
RMM:   3    -0.231823388000E+04   -0.10792E-01   -0.14092E-01  5654   0.171E-01    0.333E-01
RMM:   4    -0.231823436162E+04   -0.48162E-03   -0.15462E-02  5335   0.397E-02    0.348E-01
RMM:   5    -0.231823376785E+04    0.59377E-03   -0.25124E-03  5045   0.261E-02    0.265E-01
RMM:   6    -0.231823314914E+04    0.61871E-03   -0.15254E-03  4883   0.194E-02    0.119E-01
RMM:   7    -0.231823307787E+04    0.71268E-04   -0.26829E-04  3772   0.138E-02    0.281E-02
RMM:   8    -0.231823307537E+04    0.25024E-05   -0.53253E-05  3028   0.530E-03
   6 F= -.23387923E+04 E0= -.23387923E+04  d E =-.152227E+00  mag=     4.0000
       N       E                     dE             d eps       ncg     rms          rms(c)
DAV:   1    -0.231804994355E+04    0.18313E+00   -0.17277E+01  4436   0.320E+00    0.125E+00
RMM:   2    -0.231829735225E+04   -0.24741E+00   -0.25932E+00  6164   0.707E-01    0.903E-01
RMM:   3    -0.231832083032E+04   -0.23478E-01   -0.29115E-01  5861   0.247E-01    0.815E-01
RMM:   4    -0.231831926530E+04    0.15650E-02   -0.31608E-02  5799   0.569E-02    0.508E-01
RMM:   5    -0.231831724229E+04    0.20230E-02   -0.49651E-03  5380   0.357E-02    0.293E-01
RMM:   6    -0.231831641460E+04    0.82769E-03   -0.38545E-03  5081   0.302E-02    0.230E-01
RMM:   7    -0.231831611321E+04    0.30138E-03   -0.83443E-04  4349   0.231E-02    0.544E-02
RMM:   8    -0.231831609346E+04    0.19747E-04   -0.10678E-04  3381   0.726E-03    0.305E-02
RMM:   9    -0.231831608591E+04    0.75566E-05   -0.69230E-05  3069   0.662E-03
   7 F= -.23388730E+04 E0= -.23388730E+04  d E =-.232999E+00  mag=     4.0000
       N       E                     dE             d eps       ncg     rms          rms(c)
DAV:   1    -0.231829959914E+04    0.16494E-01   -0.70323E+00  4520   0.225E+00    0.929E-01
RMM:   2    -0.231841906452E+04   -0.11947E+00   -0.12660E+00  6042   0.484E-01    0.850E-01
RMM:   3    -0.231843159730E+04   -0.12533E-01   -0.14741E-01  5700   0.190E-01    0.903E-01
RMM:   4    -0.231842758385E+04    0.40134E-02   -0.16331E-02  5766   0.450E-02    0.307E-01
RMM:   5    -0.231842657712E+04    0.10067E-02   -0.25089E-03  5002   0.248E-02    0.150E-01
RMM:   6    -0.231842631415E+04    0.26297E-03   -0.14993E-03  4998   0.213E-02    0.119E-01
RMM:   7    -0.231842623771E+04    0.76439E-04   -0.23802E-04  4048   0.140E-02    0.287E-02
RMM:   8    -0.231842623489E+04    0.28225E-05   -0.36603E-05  2964   0.444E-03
   8 F= -.23389825E+04 E0= -.23389825E+04  d E =-.109441E+00  mag=     4.0000
       N       E                     dE             d eps       ncg     rms          rms(c)
DAV:   1    -0.231830207479E+04    0.12416E+00   -0.97327E+00  4472   0.263E+00    0.110E+00
RMM:   2    -0.231846648666E+04   -0.16441E+00   -0.17362E+00  6037   0.559E-01    0.107E+00
RMM:   3    -0.231848307364E+04   -0.16587E-01   -0.20951E-01  5689   0.224E-01    0.106E+00
RMM:   4    -0.231847755721E+04    0.55164E-02   -0.22356E-02  5731   0.530E-02    0.358E-01
RMM:   5    -0.231847619304E+04    0.13642E-02   -0.35557E-03  5100   0.295E-02    0.179E-01
RMM:   6    -0.231847585668E+04    0.33636E-03   -0.20852E-03  5016   0.248E-02    0.163E-01
RMM:   7    -0.231847571724E+04    0.13944E-03   -0.39675E-04  4402   0.170E-02    0.401E-02
RMM:   8    -0.231847571344E+04    0.37937E-05   -0.56565E-05  3114   0.510E-03
   9 F= -.23390313E+04 E0= -.23390313E+04  d E =-.158223E+00  mag=     4.0000
       N       E                     dE             d eps       ncg     rms          rms(c)
DAV:   1    -0.231841927411E+04    0.56443E-01   -0.63626E+00  4472   0.221E+00    0.869E-01
RMM:   2    -0.231853664698E+04   -0.11737E+00   -0.11810E+00  6081   0.478E-01    0.120E+00
RMM:   3    -0.231854254927E+04   -0.59023E-02   -0.14322E-01  5782   0.178E-01    0.779E-01
RMM:   4    -0.231853975975E+04    0.27895E-02   -0.14753E-02  5441   0.434E-02    0.228E-01
RMM:   5    -0.231853883960E+04    0.92014E-03   -0.17082E-03  5112   0.245E-02    0.134E-01
RMM:   6    -0.231853859784E+04    0.24176E-03   -0.12204E-03  4901   0.219E-02    0.884E-02
RMM:   7    -0.231853856747E+04    0.30374E-04   -0.18230E-04  4219   0.135E-02    0.274E-02
RMM:   8    -0.231853856717E+04    0.30018E-06   -0.29665E-05  2920   0.475E-03
  10 F= -.23390950E+04 E0= -.23390950E+04  d E =-.637354E-01  mag=     4.0000
       N       E                     dE             d eps       ncg     rms          rms(c)
DAV:   1    -0.231834536509E+04    0.19320E+00   -0.11937E+01  4428   0.302E+00    0.119E+00
RMM:   2    -0.231856689032E+04   -0.22153E+00   -0.22186E+00  6036   0.656E-01    0.170E+00
RMM:   3    -0.231857570069E+04   -0.88104E-02   -0.27119E-01  5730   0.255E-01    0.101E+00
RMM:   4    -0.231857103728E+04    0.46634E-02   -0.26836E-02  5399   0.593E-02    0.307E-01
RMM:   5    -0.231856932962E+04    0.17077E-02   -0.32638E-03  5178   0.341E-02    0.186E-01
RMM:   6    -0.231856880715E+04    0.52247E-03   -0.22989E-03  4946   0.300E-02    0.923E-02
RMM:   7    -0.231856876631E+04    0.40831E-04   -0.32094E-04  4639   0.181E-02    0.327E-02
RMM:   8    -0.231856876028E+04    0.60394E-05   -0.65287E-05  3289   0.621E-03
  11 F= -.23391263E+04 E0= -.23391263E+04  d E =-.950446E-01  mag=     4.0000
       N       E                     dE             d eps       ncg     rms          rms(c)
DAV:   1    -0.231846072485E+04    0.10804E+00   -0.81997E+00  4440   0.245E+00    0.976E-01
RMM:   2    -0.231862012650E+04   -0.15940E+00   -0.15411E+00  6098   0.539E-01    0.171E+00
RMM:   3    -0.231861762588E+04    0.25006E-02   -0.17238E-01  5791   0.193E-01    0.658E-01
RMM:   4    -0.231861629448E+04    0.13314E-02   -0.18224E-02  5306   0.448E-02    0.233E-01
RMM:   5    -0.231861541921E+04    0.87527E-03   -0.15831E-03  5024   0.245E-02    0.198E-01
RMM:   6    -0.231861500057E+04    0.41864E-03   -0.18497E-03  5110   0.255E-02    0.735E-02
RMM:   7    -0.231861497113E+04    0.29437E-04   -0.21529E-04  4307   0.129E-02    0.413E-02
RMM:   8    -0.231861496510E+04    0.60328E-05   -0.43482E-05  3041   0.501E-03
  12 F= -.23391739E+04 E0= -.23391739E+04  d E =-.476437E-01  mag=     4.0000
       N       E                     dE             d eps       ncg     rms          rms(c)
DAV:   1    -0.231852141955E+04    0.93552E-01   -0.56234E+00  4440   0.203E+00    0.803E-01
RMM:   2    -0.231862932497E+04   -0.10791E+00   -0.10519E+00  6093   0.448E-01    0.134E+00
RMM:   3    -0.231862871821E+04    0.60676E-03   -0.11647E-01  5786   0.156E-01    0.563E-01
RMM:   4    -0.231862764034E+04    0.10779E-02   -0.12380E-02  5276   0.373E-02    0.193E-01
RMM:   5    -0.231862699543E+04    0.64491E-03   -0.10555E-03  4968   0.204E-02    0.153E-01
RMM:   6    -0.231862669799E+04    0.29745E-03   -0.12304E-03  4989   0.213E-02    0.459E-02
RMM:   7    -0.231862668859E+04    0.93973E-05   -0.14676E-04  4052   0.111E-02    0.340E-02
RMM:   8    -0.231862668586E+04    0.27293E-05   -0.35006E-05  3004   0.458E-03
  13 F= -.23391868E+04 E0= -.23391868E+04  d E =-.604746E-01  mag=     4.0000
       N       E                     dE             d eps       ncg     rms          rms(c)
DAV:   1    -0.231856167005E+04    0.65019E-01   -0.55204E+00  4432   0.204E+00    0.803E-01
RMM:   2    -0.231866471839E+04   -0.10305E+00   -0.98318E-01  6053   0.445E-01    0.149E+00
RMM:   3    -0.231866097421E+04    0.37442E-02   -0.10592E-01  5760   0.154E-01    0.524E-01
RMM:   4    -0.231866000835E+04    0.96586E-03   -0.11457E-02  5155   0.383E-02    0.188E-01
RMM:   5    -0.231865953830E+04    0.47005E-03   -0.98840E-04  4898   0.219E-02    0.172E-01
RMM:   6    -0.231865929968E+04    0.23862E-03   -0.10951E-03  4775   0.213E-02    0.536E-02
RMM:   7    -0.231865928906E+04    0.10623E-04   -0.11761E-04  3510   0.110E-02    0.248E-02
RMM:   8    -0.231865929037E+04   -0.13131E-05   -0.20877E-05  2873   0.406E-03
  14 F= -.23392201E+04 E0= -.23392201E+04  d E =-.333075E-01  mag=     4.0000
       N       E                     dE             d eps       ncg     rms          rms(c)
DAV:   1    -0.231861091639E+04    0.48373E-01   -0.31123E+00  4472   0.153E+00    0.605E-01
RMM:   2    -0.231866955355E+04   -0.58637E-01   -0.55541E-01  6054   0.336E-01    0.115E+00
RMM:   3    -0.231866670381E+04    0.28497E-02   -0.56945E-02  5739   0.111E-01    0.388E-01
RMM:   4    -0.231866627133E+04    0.43248E-03   -0.65047E-03  5047   0.287E-02    0.140E-01
RMM:   5    -0.231866600902E+04    0.26232E-03   -0.55838E-04  4645   0.167E-02    0.135E-01
RMM:   6    -0.231866586459E+04    0.14442E-03   -0.65530E-04  4608   0.166E-02    0.478E-02
RMM:   7    -0.231866585142E+04    0.13177E-04   -0.66441E-05  3126   0.891E-03    0.186E-02
RMM:   8    -0.231866585193E+04   -0.50776E-06   -0.14251E-05  2858   0.351E-03
  15 F= -.23392271E+04 E0= -.23392271E+04  d E =-.403477E-01  mag=     4.0000
       N       E                     dE             d eps       ncg     rms          rms(c)
DAV:   1    -0.231862342828E+04    0.42423E-01   -0.40200E+00  4464   0.184E+00    0.701E-01
RMM:   2    -0.231869768085E+04   -0.74253E-01   -0.66453E-01  6016   0.379E-01    0.154E+00
RMM:   3    -0.231868944994E+04    0.82309E-02   -0.67904E-02  5695   0.126E-01    0.384E-01
RMM:   4    -0.231868903722E+04    0.41272E-03   -0.74447E-03  4913   0.308E-02    0.149E-01
RMM:   5    -0.231868879290E+04    0.24432E-03   -0.68284E-04  4823   0.190E-02    0.185E-01
RMM:   6    -0.231868857504E+04    0.21786E-03   -0.10681E-03  4853   0.196E-02    0.785E-02
RMM:   7    -0.231868853440E+04    0.40642E-04   -0.95686E-05  3218   0.998E-03    0.149E-02
RMM:   8    -0.231868853175E+04    0.26534E-05   -0.15100E-05  2864   0.345E-03
  16 F= -.23392496E+04 E0= -.23392496E+04  d E =-.225226E-01  mag=     4.0000
       N       E                     dE             d eps       ncg     rms          rms(c)
DAV:   1    -0.231837165848E+04    0.31688E+00   -0.20292E+01  4408   0.412E+00    0.159E+00
RMM:   2    -0.231875259696E+04   -0.38094E+00   -0.34066E+00  6003   0.846E-01    0.347E+00
RMM:   3    -0.231870911688E+04    0.43480E-01   -0.34231E-01  5661   0.294E-01    0.883E-01
RMM:   4    -0.231870644569E+04    0.26712E-02   -0.37158E-02  4961   0.694E-02    0.337E-01
RMM:   5    -0.231870529367E+04    0.11520E-02   -0.31667E-03  5045   0.414E-02    0.435E-01
RMM:   6    -0.231870417891E+04    0.11148E-02   -0.58808E-03  5052   0.447E-02    0.212E-01
RMM:   7    -0.231870389514E+04    0.28377E-03   -0.51944E-04  4648   0.216E-02    0.489E-02
RMM:   8    -0.231870387301E+04    0.22131E-04   -0.76416E-05  3269   0.639E-03    0.293E-02
RMM:   9    -0.231870386521E+04    0.78008E-05   -0.68816E-05  3259   0.608E-03
  17 F= -.23392644E+04 E0= -.23392644E+04  d E =-.372440E-01  mag=     4.0000
       N       E                     dE             d eps       ncg     rms          rms(c)
DAV:   1    -0.231869662189E+04    0.72511E-02   -0.11981E+00  4640   0.102E+00    0.380E-01
RMM:   2    -0.231871872015E+04   -0.22098E-01   -0.18889E-01  6135   0.205E-01    0.930E-01
RMM:   3    -0.231871486710E+04    0.38531E-02   -0.16391E-02  5681   0.641E-02    0.181E-01
RMM:   4    -0.231871481182E+04    0.55274E-04   -0.18818E-03  4377   0.161E-02    0.778E-02
RMM:   5    -0.231871476549E+04    0.46336E-04   -0.19453E-04  3921   0.103E-02    0.111E-01
RMM:   6    -0.231871469496E+04    0.70524E-04   -0.31810E-04  4178   0.115E-02    0.372E-02
RMM:   7    -0.231871468982E+04    0.51434E-05   -0.30752E-05  2886   0.638E-03
  18 F= -.23392752E+04 E0= -.23392752E+04  d E =-.108240E-01  mag=     4.0000
       N       E                     dE             d eps       ncg     rms          rms(c)
DAV:   1    -0.231857415916E+04    0.14054E+00   -0.10758E+01  4440   0.307E+00    0.115E+00
RMM:   2    -0.231877312269E+04   -0.19896E+00   -0.16908E+00  6014   0.612E-01    0.281E+00
RMM:   3    -0.231873903106E+04    0.34092E-01   -0.17306E-01  5655   0.204E-01    0.514E-01
RMM:   4    -0.231873878015E+04    0.25091E-03   -0.19480E-02  4986   0.477E-02    0.239E-01
RMM:   5    -0.231873842329E+04    0.35686E-03   -0.19201E-03  5148   0.289E-02    0.360E-01
RMM:   6    -0.231873760684E+04    0.81644E-03   -0.29868E-03  5265   0.305E-02    0.129E-01
RMM:   7    -0.231873752653E+04    0.80315E-04   -0.29615E-04  4081   0.142E-02    0.420E-02
RMM:   8    -0.231873751184E+04    0.14689E-04   -0.36384E-05  2908   0.495E-03    0.160E-02
RMM:   9    -0.231873751124E+04    0.60035E-06   -0.31970E-05  2941   0.408E-03
  19 F= -.23392978E+04 E0= -.23392978E+04  d E =-.334838E-01  mag=     4.0000
       N       E                     dE             d eps       ncg     rms          rms(c)
DAV:   1    -0.231807444946E+04    0.66306E+00   -0.42958E+01  4440   0.614E+00    0.232E+00
RMM:   2    -0.231888457639E+04   -0.81013E+00   -0.69445E+00  6018   0.124E+00    0.535E+00
RMM:   3    -0.231874643694E+04    0.13814E+00   -0.68489E-01  5681   0.410E-01    0.101E+00
RMM:   4    -0.231874565105E+04    0.78589E-03   -0.78714E-02  4991   0.952E-02    0.484E-01
RMM:   5    -0.231874462234E+04    0.10287E-02   -0.76315E-03  5280   0.575E-02    0.780E-01
RMM:   6    -0.231874098759E+04    0.36348E-02   -0.13685E-02  5353   0.626E-02    0.318E-01
RMM:   7    -0.231874055507E+04    0.43251E-03   -0.14177E-03  5104   0.281E-02    0.136E-01
RMM:   8    -0.231874043969E+04    0.11538E-03   -0.18752E-04  3782   0.905E-03    0.480E-02
RMM:   9    -0.231874043431E+04    0.53772E-05   -0.16377E-04  3688   0.856E-03    0.155E-02
RMM:  10    -0.231874044361E+04   -0.93034E-05   -0.33923E-05  2873   0.542E-03
  20 F= -.23392997E+04 E0= -.23392997E+04  d E =-.353503E-01  mag=     4.0000
       N       E                     dE             d eps       ncg     rms          rms(c)
DAV:   1    -0.231860415231E+04    0.13628E+00   -0.93281E+00  4472   0.286E+00    0.105E+00
RMM:   2    -0.231877414796E+04   -0.17000E+00   -0.14780E+00  6090   0.588E-01    0.246E+00
RMM:   3    -0.231874840286E+04    0.25745E-01   -0.13674E-01  5775   0.172E-01    0.557E-01
RMM:   4    -0.231874722055E+04    0.11823E-02   -0.14550E-02  5118   0.445E-02    0.222E-01
RMM:   5    -0.231874666852E+04    0.55204E-03   -0.15402E-03  5075   0.258E-02    0.282E-01
RMM:   6    -0.231874616176E+04    0.50676E-03   -0.24280E-03  5072   0.289E-02    0.961E-02
RMM:   7    -0.231874610152E+04    0.60244E-04   -0.19100E-04  3798   0.132E-02    0.321E-02
RMM:   8    -0.231874609360E+04    0.79169E-05   -0.28958E-05  2863   0.433E-03
  21 F= -.23393060E+04 E0= -.23393060E+04  d E =-.416214E-01  mag=     4.0000
       N       E                     dE             d eps       ncg     rms          rms(c)
DAV:   1    -0.231874005786E+04    0.60437E-02   -0.19742E+00  4480   0.134E+00    0.498E-01
RMM:   2    -0.231877665827E+04   -0.36600E-01   -0.30973E-01  5895   0.268E-01    0.124E+00
RMM:   3    -0.231876970911E+04    0.69492E-02   -0.31374E-02  5428   0.908E-02    0.223E-01
RMM:   4    -0.231876961184E+04    0.97270E-04   -0.35766E-03  4808   0.233E-02    0.119E-01
RMM:   5    -0.231876956857E+04    0.43271E-04   -0.58566E-04  4884   0.171E-02    0.189E-01
RMM:   6    -0.231876933267E+04    0.23590E-03   -0.63963E-04  4777   0.150E-02    0.475E-02
RMM:   7    -0.231876932059E+04    0.12075E-04   -0.66887E-05  2931   0.798E-03    0.178E-02
RMM:   8    -0.231876931584E+04    0.47525E-05   -0.12655E-05  2846   0.329E-03
  22 F= -.23393290E+04 E0= -.23393290E+04  d E =-.230372E-01  mag=     4.0000
       N       E                     dE             d eps       ncg     rms          rms(c)
DAV:   1    -0.231860935692E+04    0.15996E+00   -0.12348E+01  4440   0.336E+00    0.127E+00
RMM:   2    -0.231884685129E+04   -0.23749E+00   -0.20024E+00  5915   0.682E-01    0.310E+00
RMM:   3    -0.231879621288E+04    0.50638E-01   -0.18647E-01  5560   0.219E-01    0.541E-01
RMM:   4    -0.231879612093E+04    0.91942E-04   -0.22146E-02  4814   0.579E-02    0.306E-01
RMM:   5    -0.231879591992E+04    0.20101E-03   -0.33732E-03  5270   0.409E-02    0.487E-01
RMM:   6    -0.231879434772E+04    0.15722E-02   -0.43273E-03  5318   0.367E-02    0.126E-01
RMM:   7    -0.231879424965E+04    0.98069E-04   -0.40700E-04  4277   0.166E-02    0.462E-02
RMM:   8    -0.231879422324E+04    0.26406E-04   -0.67932E-05  3193   0.652E-03    0.172E-02
RMM:   9    -0.231879422097E+04    0.22696E-05   -0.46618E-05  3168   0.530E-03
  23 F= -.23393532E+04 E0= -.23393532E+04  d E =-.472380E-01  mag=     4.0000
       N       E                     dE             d eps       ncg     rms          rms(c)
DAV:   1    -0.231878973978E+04    0.44835E-02   -0.20614E+00  4544   0.142E+00    0.493E-01
RMM:   2    -0.231881711371E+04   -0.27374E-01   -0.23658E-01  5843   0.263E-01    0.104E+00
RMM:   3    -0.231881214626E+04    0.49675E-02   -0.23543E-02  5324   0.891E-02    0.249E-01
RMM:   4    -0.231881181246E+04    0.33379E-03   -0.26539E-03  4648   0.230E-02    0.108E-01
RMM:   5    -0.231881173605E+04    0.76410E-04   -0.57231E-04  5150   0.184E-02    0.151E-01
RMM:   6    -0.231881159086E+04    0.14519E-03   -0.41711E-04  4694   0.130E-02    0.367E-02
RMM:   7    -0.231881158225E+04    0.86149E-05   -0.45052E-05  2925   0.719E-03
  24 F= -.23393699E+04 E0= -.23393699E+04  d E =-.167019E-01  mag=     4.0000
       N       E                     dE             d eps       ncg     rms          rms(c)
DAV:   1    -0.231878419159E+04    0.27399E-01   -0.34499E+00  4472   0.184E+00    0.637E-01
RMM:   2    -0.231882984761E+04   -0.45656E-01   -0.39812E-01  5799   0.340E-01    0.131E+00
RMM:   3    -0.231882180567E+04    0.80419E-02   -0.38740E-02  5307   0.110E-01    0.328E-01
RMM:   4    -0.231882122042E+04    0.58525E-03   -0.44414E-03  4692   0.297E-02    0.140E-01
RMM:   5    -0.231882105105E+04    0.16937E-03   -0.93583E-04  5354   0.235E-02    0.190E-01
RMM:   6    -0.231882080141E+04    0.24964E-03   -0.68856E-04  5002   0.164E-02    0.472E-02
RMM:   7    -0.231882078033E+04    0.21086E-04   -0.63821E-05  3111   0.794E-03    0.148E-02
RMM:   8    -0.231882077214E+04    0.81885E-05   -0.16696E-05  2859   0.381E-03
  25 F= -.23393782E+04 E0= -.23393782E+04  d E =-.249714E-01  mag=     4.0000
       N       E                     dE             d eps       ncg     rms          rms(c)
DAV:   1    -0.231881345117E+04    0.73292E-02   -0.26659E+00  4464   0.162E+00    0.507E-01
RMM:   2    -0.231884015819E+04   -0.26707E-01   -0.25026E-01  5779   0.288E-01    0.858E-01
RMM:   3    -0.231883779015E+04    0.23680E-02   -0.23452E-02  5397   0.948E-02    0.360E-01
RMM:   4    -0.231883691154E+04    0.87861E-03   -0.26989E-03  4725   0.269E-02    0.119E-01
RMM:   5    -0.231883669507E+04    0.21647E-03   -0.71396E-04  5249   0.221E-02    0.103E-01
RMM:   6    -0.231883661773E+04    0.77342E-04   -0.29683E-04  4649   0.131E-02    0.276E-02
RMM:   7    -0.231883660822E+04    0.95040E-05   -0.31904E-05  3010   0.652E-03
  26 F= -.23393934E+04 E0= -.23393934E+04  d E =-.152024E-01  mag=     4.0000
       N       E                     dE             d eps       ncg     rms          rms(c)
DAV:   1    -0.231882524404E+04    0.11374E-01   -0.17695E+00  4480   0.132E+00    0.410E-01
RMM:   2    -0.231884276063E+04   -0.17517E-01   -0.16603E-01  5785   0.235E-01    0.675E-01
RMM:   3    -0.231884147033E+04    0.12903E-02   -0.15871E-02  5356   0.752E-02    0.306E-01
RMM:   4    -0.231884080130E+04    0.66903E-03   -0.17910E-03  4750   0.222E-02    0.986E-02
RMM:   5    -0.231884063383E+04    0.16746E-03   -0.48508E-04  5240   0.182E-02    0.781E-02
RMM:   6    -0.231884057818E+04    0.55645E-04   -0.18887E-04  4475   0.107E-02    0.202E-02
RMM:   7    -0.231884057002E+04    0.81602E-05   -0.23818E-05  2955   0.566E-03
  27 F= -.23393968E+04 E0= -.23393968E+04  d E =-.186169E-01  mag=     4.0000
       N       E                     dE             d eps       ncg     rms          rms(c)
DAV:   1    -0.231882554852E+04    0.15030E-01   -0.31880E+00  4440   0.176E+00    0.486E-01
RMM:   2    -0.231885620986E+04   -0.30661E-01   -0.30970E-01  5848   0.311E-01    0.622E-01
RMM:   3    -0.231885747916E+04   -0.12693E-02   -0.31198E-02  5515   0.101E-01    0.479E-01
RMM:   4    -0.231885611544E+04    0.13637E-02   -0.33999E-03  5190   0.267E-02    0.137E-01
RMM:   5    -0.231885587601E+04    0.23944E-03   -0.66708E-04  4806   0.174E-02    0.766E-02
RMM:   6    -0.231885583925E+04    0.36757E-04   -0.31650E-04  4414   0.146E-02    0.187E-02
RMM:   7    -0.231885583967E+04   -0.42233E-06   -0.36431E-05  2974   0.682E-03
  28 F= -.23394115E+04 E0= -.23394115E+04  d E =-.146648E-01  mag=     4.0000
       N       E                     dE             d eps       ncg     rms          rms(c)
DAV:   1    -0.231870767500E+04    0.14816E+00   -0.16715E+01  4440   0.403E+00    0.111E+00
RMM:   2    -0.231886963247E+04   -0.16196E+00   -0.16307E+00  5839   0.709E-01    0.149E+00
RMM:   3    -0.231887628147E+04   -0.66490E-02   -0.16580E-01  5532   0.233E-01    0.113E+00
RMM:   4    -0.231886884926E+04    0.74322E-02   -0.17733E-02  5286   0.611E-02    0.325E-01
RMM:   5    -0.231886760418E+04    0.12451E-02   -0.34507E-03  4967   0.387E-02    0.190E-01
RMM:   6    -0.231886734658E+04    0.25760E-03   -0.19936E-03  4831   0.335E-02    0.534E-02
RMM:   7    -0.231886733132E+04    0.15260E-04   -0.20883E-04  4127   0.147E-02    0.293E-02
RMM:   8    -0.231886731599E+04    0.15338E-04   -0.45477E-05  3087   0.528E-03    0.133E-02
RMM:   9    -0.231886731355E+04    0.24400E-05   -0.18582E-05  2881   0.400E-03
  29 F= -.23394214E+04 E0= -.23394214E+04  d E =-.246021E-01  mag=     4.0000
       N       E                     dE             d eps       ncg     rms          rms(c)
DAV:   1    -0.231885651235E+04    0.10804E-01   -0.22115E+00  4496   0.149E+00    0.415E-01
RMM:   2    -0.231887876340E+04   -0.22251E-01   -0.22210E-01  5854   0.266E-01    0.552E-01
RMM:   3    -0.231887963938E+04   -0.87598E-03   -0.23247E-02  5506   0.882E-02    0.415E-01
RMM:   4    -0.231887870482E+04    0.93456E-03   -0.25771E-03  5019   0.228E-02    0.113E-01
RMM:   5    -0.231887854832E+04    0.15650E-03   -0.46970E-04  4584   0.148E-02    0.583E-02
RMM:   6    -0.231887852500E+04    0.23326E-04   -0.20160E-04  4317   0.121E-02    0.159E-02
RMM:   7    -0.231887852619E+04   -0.11889E-05   -0.24488E-05  2927   0.677E-03
  30 F= -.23394322E+04 E0= -.23394322E+04  d E =-.107843E-01  mag=     4.0000
       N       E                     dE             d eps       ncg     rms          rms(c)
DAV:   1    -0.231873652300E+04    0.14200E+00   -0.15391E+01  4440   0.393E+00    0.112E+00
RMM:   2    -0.231889561472E+04   -0.15909E+00   -0.15625E+00  5708   0.698E-01    0.164E+00
RMM:   3    -0.231889661168E+04   -0.99696E-03   -0.17172E-01  5359   0.256E-01    0.972E-01
RMM:   4    -0.231889185349E+04    0.47582E-02   -0.18192E-02  5136   0.597E-02    0.295E-01
RMM:   5    -0.231889071978E+04    0.11337E-02   -0.26460E-03  4972   0.380E-02    0.166E-01
RMM:   6    -0.231889052405E+04    0.19574E-03   -0.15239E-03  4884   0.302E-02    0.413E-02
RMM:   7    -0.231889052228E+04    0.17653E-05   -0.17194E-04  4151   0.146E-02    0.279E-02
RMM:   8    -0.231889051059E+04    0.11690E-04   -0.36856E-05  3013   0.523E-03    0.142E-02
RMM:   9    -0.231889050768E+04    0.29146E-05   -0.16982E-05  2879   0.403E-03
  31 F= -.23394430E+04 E0= -.23394430E+04  d E =-.215472E-01  mag=     4.0000
       N       E                     dE             d eps       ncg     rms          rms(c)
DAV:   1    -0.231886540372E+04    0.25107E-01   -0.30397E+00  4452   0.173E+00    0.513E-01
RMM:   2    -0.231890491385E+04   -0.39510E-01   -0.40228E-01  5687   0.317E-01    0.624E-01
RMM:   3    -0.231890722766E+04   -0.23138E-02   -0.44607E-02  5288   0.129E-01    0.503E-01
RMM:   4    -0.231890595458E+04    0.12731E-02   -0.44768E-03  5295   0.278E-02    0.144E-01
RMM:   5    -0.231890562918E+04    0.32540E-03   -0.69191E-04  4774   0.165E-02    0.793E-02
RMM:   6    -0.231890557111E+04    0.58064E-04   -0.46052E-04  4751   0.150E-02    0.651E-02
RMM:   7    -0.231890555185E+04    0.19264E-04   -0.73090E-05  3060   0.943E-03    0.164E-02
RMM:   8    -0.231890555166E+04    0.19289E-06   -0.12373E-05  2842   0.348E-03
  32 F= -.23394577E+04 E0= -.23394577E+04  d E =-.147325E-01  mag=     4.0000
       N       E                     dE             d eps       ncg     rms          rms(c)
DAV:   1    -0.231885407948E+04    0.51472E-01   -0.44297E+00  4440   0.208E+00    0.621E-01
RMM:   2    -0.231891194869E+04   -0.57869E-01   -0.58925E-01  5636   0.383E-01    0.753E-01
RMM:   3    -0.231891502371E+04   -0.30750E-02   -0.65120E-02  5225   0.159E-01    0.581E-01
RMM:   4    -0.231891331757E+04    0.17061E-02   -0.64740E-03  5362   0.336E-02    0.173E-01
RMM:   5    -0.231891283932E+04    0.47825E-03   -0.98714E-04  4987   0.197E-02    0.951E-02
RMM:   6    -0.231891275398E+04    0.85342E-04   -0.66499E-04  4846   0.176E-02    0.784E-02
RMM:   7    -0.231891272430E+04    0.29680E-04   -0.98099E-05  3432   0.105E-02    0.207E-02
RMM:   8    -0.231891272417E+04    0.12894E-06   -0.16816E-05  2845   0.378E-03
  33 F= -.23394645E+04 E0= -.23394645E+04  d E =-.214919E-01  mag=     4.0000
       N       E                     dE             d eps       ncg     rms          rms(c)
DAV:   1    -0.231890634797E+04    0.63763E-02   -0.10830E+00  4512   0.107E+00    0.334E-01
RMM:   2    -0.231891950642E+04   -0.13158E-01   -0.13730E-01  5704   0.200E-01    0.294E-01
RMM:   3    -0.231892085187E+04   -0.13455E-02   -0.15772E-02  5243   0.796E-02    0.367E-01
RMM:   4    -0.231892011153E+04    0.74034E-03   -0.16503E-03  4960   0.185E-02    0.882E-02
RMM:   5    -0.231891997891E+04    0.13262E-03   -0.41746E-04  4392   0.131E-02    0.502E-02
RMM:   6    -0.231891994942E+04    0.29493E-04   -0.18037E-04  4250   0.105E-02    0.336E-02
RMM:   7    -0.231891994479E+04    0.46331E-05   -0.27259E-05  2873   0.735E-03
  34 F= -.23394714E+04 E0= -.23394714E+04  d E =-.693709E-02  mag=     4.0000
       N       E                     dE             d eps       ncg     rms          rms(c)
DAV:   1    -0.231891084174E+04    0.91077E-02   -0.89547E-01  4464   0.971E-01    0.303E-01
RMM:   2    -0.231892168675E+04   -0.10845E-01   -0.11383E-01  5704   0.182E-01    0.251E-01
RMM:   3    -0.231892282258E+04   -0.11358E-02   -0.12991E-02  5226   0.680E-02    0.328E-01
RMM:   4    -0.231892223349E+04    0.58909E-03   -0.13803E-03  4716   0.167E-02    0.818E-02
RMM:   5    -0.231892211969E+04    0.11380E-03   -0.33177E-04  4271   0.120E-02    0.483E-02
RMM:   6    -0.231892209041E+04    0.29276E-04   -0.15842E-04  4208   0.986E-03    0.324E-02
RMM:   7    -0.231892208523E+04    0.51842E-05   -0.25203E-05  2864   0.703E-03
  35 F= -.23394733E+04 E0= -.23394733E+04  d E =-.881235E-02  mag=     4.0000
       N       E                     dE             d eps       ncg     rms          rms(c)
DAV:   1    -0.231891589181E+04    0.61986E-02   -0.10663E+00  4464   0.104E+00    0.278E-01
RMM:   2    -0.231892814806E+04   -0.12256E-01   -0.12723E-01  5851   0.191E-01    0.232E-01
RMM:   3    -0.231892918352E+04   -0.10355E-02   -0.10869E-02  5332   0.610E-02    0.322E-01
RMM:   4    -0.231892863749E+04    0.54603E-03   -0.14382E-03  4292   0.155E-02    0.800E-02
RMM:   5    -0.231892852901E+04    0.10847E-03   -0.24790E-04  4026   0.101E-02    0.456E-02
RMM:   6    -0.231892849962E+04    0.29396E-04   -0.14520E-04  4081   0.973E-03    0.162E-02
RMM:   7    -0.231892850102E+04   -0.14004E-05   -0.18092E-05  2876   0.638E-03
  36 F= -.23394793E+04 E0= -.23394793E+04  d E =-.606472E-02  mag=     4.0000
       N       E                     dE             d eps       ncg     rms          rms(c)
DAV:   1    -0.231883255624E+04    0.95943E-01   -0.88108E+00  4408   0.299E+00    0.798E-01
RMM:   2    -0.231893226250E+04   -0.99706E-01   -0.10382E+00  5809   0.541E-01    0.628E-01
RMM:   3    -0.231894188262E+04   -0.96201E-02   -0.99248E-02  5350   0.188E-01    0.913E-01
RMM:   4    -0.231893761629E+04    0.42663E-02   -0.11770E-02  5808   0.435E-02    0.229E-01
RMM:   5    -0.231893674683E+04    0.86946E-03   -0.17150E-03  4935   0.246E-02    0.131E-01
RMM:   6    -0.231893645359E+04    0.29324E-03   -0.12655E-03  4973   0.245E-02    0.439E-02
RMM:   7    -0.231893644715E+04    0.64395E-05   -0.12059E-04  4275   0.129E-02    0.205E-02
RMM:   8    -0.231893644958E+04   -0.24293E-05   -0.31297E-05  3004   0.431E-03
  37 F= -.23394862E+04 E0= -.23394862E+04  d E =-.129630E-01  mag=     4.0000
       N       E                     dE             d eps       ncg     rms          rms(c)
DAV:   1    -0.231893126149E+04    0.51857E-02   -0.12358E+00  4432   0.111E+00    0.279E-01
RMM:   2    -0.231894274696E+04   -0.11485E-01   -0.12015E-01  5905   0.200E-01    0.206E-01
RMM:   3    -0.231894377327E+04   -0.10263E-02   -0.10837E-02  5383   0.625E-02    0.302E-01
RMM:   4    -0.231894330372E+04    0.46956E-03   -0.13556E-03  4277   0.157E-02    0.836E-02
RMM:   5    -0.231894319286E+04    0.11086E-03   -0.27648E-04  4212   0.114E-02    0.442E-02
RMM:   6    -0.231894317456E+04    0.18298E-04   -0.12646E-04  3986   0.986E-03    0.188E-02
RMM:   7    -0.231894317609E+04   -0.15295E-05   -0.17044E-05  2860   0.580E-03
  38 F= -.23394926E+04 E0= -.23394926E+04  d E =-.634556E-02  mag=     4.0000
       N       E                     dE             d eps       ncg     rms          rms(c)
DAV:   1    -0.231885356685E+04    0.89608E-01   -0.10158E+01  4408   0.317E+00    0.800E-01
RMM:   2    -0.231894797005E+04   -0.94403E-01   -0.99222E-01  5861   0.566E-01    0.549E-01
RMM:   3    -0.231895584764E+04   -0.78776E-02   -0.85199E-02  5389   0.174E-01    0.815E-01
RMM:   4    -0.231895265174E+04    0.31959E-02   -0.10888E-02  5823   0.430E-02    0.251E-01
RMM:   5    -0.231895178241E+04    0.86932E-03   -0.16724E-03  4879   0.261E-02    0.136E-01
RMM:   6    -0.231895153674E+04    0.24568E-03   -0.12995E-03  5004   0.253E-02    0.476E-02
RMM:   7    -0.231895153010E+04    0.66398E-05   -0.11640E-04  4182   0.130E-02    0.195E-02
RMM:   8    -0.231895153403E+04   -0.39379E-05   -0.24261E-05  2943   0.373E-03
  39 F= -.23394998E+04 E0= -.23394998E+04  d E =-.135700E-01  mag=     4.0000
       N       E                     dE             d eps       ncg     rms          rms(c)
DAV:   1    -0.231894102502E+04    0.10505E-01   -0.23441E+00  4440   0.152E+00    0.376E-01
RMM:   2    -0.231895788380E+04   -0.16859E-01   -0.18074E-01  5805   0.264E-01    0.199E-01
RMM:   3    -0.231895900887E+04   -0.11251E-02   -0.15549E-02  5256   0.804E-02    0.247E-01
RMM:   4    -0.231895881524E+04    0.19364E-03   -0.19794E-03  4994   0.193E-02    0.138E-01
RMM:   5    -0.231895860327E+04    0.21197E-03   -0.48977E-04  4545   0.152E-02    0.644E-02
RMM:   6    -0.231895856790E+04    0.35367E-04   -0.18765E-04  4311   0.118E-02    0.208E-02
RMM:   7    -0.231895856864E+04   -0.73790E-06   -0.18878E-05  2887   0.567E-03
  40 F= -.23395066E+04 E0= -.23395066E+04  d E =-.676684E-02  mag=     4.0000
       N       E                     dE             d eps       ncg     rms          rms(c)
DAV:   1    -0.231892630678E+04    0.32261E-01   -0.46064E+00  4440   0.212E+00    0.529E-01
RMM:   2    -0.231895954145E+04   -0.33235E-01   -0.35618E-01  5814   0.370E-01    0.292E-01
RMM:   3    -0.231896189119E+04   -0.23497E-02   -0.30882E-02  5330   0.108E-01    0.391E-01
RMM:   4    -0.231896130685E+04    0.58434E-03   -0.39433E-03  5510   0.270E-02    0.186E-01
RMM:   5    -0.231896089609E+04    0.41077E-03   -0.90185E-04  4756   0.202E-02    0.889E-02
RMM:   6    -0.231896082094E+04    0.75143E-04   -0.37761E-04  4874   0.156E-02    0.342E-02
RMM:   7    -0.231896081435E+04    0.65939E-05   -0.34225E-05  3121   0.622E-03
  41 F= -.23395084E+04 E0= -.23395084E+04  d E =-.863290E-02  mag=     4.0000
       N       E                     dE             d eps       ncg     rms          rms(c)
DAV:   1    -0.231895841068E+04    0.24103E-02   -0.35936E-01  4592   0.593E-01    0.146E-01
RMM:   2    -0.231896095324E+04   -0.25426E-02   -0.27348E-02  5830   0.105E-01    0.697E-02
RMM:   3    -0.231896112288E+04   -0.16964E-03   -0.26968E-03  4823   0.361E-02    0.526E-02
RMM:   4    -0.231896112539E+04   -0.25037E-05   -0.30037E-04  3045   0.851E-03    0.565E-02
RMM:   5    -0.231896111312E+04    0.12264E-04   -0.68334E-05  2918   0.601E-03    0.467E-02
RMM:   6    -0.231896109631E+04    0.16813E-04   -0.42898E-05  2998   0.583E-03    0.786E-03
RMM:   7    -0.231896109674E+04   -0.43388E-06   -0.75264E-06  2829   0.457E-03
  42 F= -.23395088E+04 E0= -.23395088E+04  d E =-.902182E-02  mag=     4.0000
       N       E                     dE             d eps       ncg     rms          rms(c)
DAV:   1    -0.231895011907E+04    0.10977E-01   -0.21101E+00  4440   0.146E+00    0.355E-01
RMM:   2    -0.231896670617E+04   -0.16587E-01   -0.17700E-01  5694   0.252E-01    0.177E-01
RMM:   3    -0.231896770349E+04   -0.99732E-03   -0.16102E-02  5152   0.762E-02    0.141E-01
RMM:   4    -0.231896783551E+04   -0.13203E-03   -0.19495E-03  4921   0.188E-02    0.193E-01
RMM:   5    -0.231896755257E+04    0.28295E-03   -0.41491E-04  4457   0.137E-02    0.557E-02
RMM:   6    -0.231896751989E+04    0.32675E-04   -0.18332E-04  4230   0.109E-02    0.142E-02
RMM:   7    -0.231896752125E+04   -0.13546E-05   -0.18709E-05  2873   0.688E-03
  43 F= -.23395153E+04 E0= -.23395153E+04  d E =-.649558E-02  mag=     4.0000
       N       E                     dE             d eps       ncg     rms          rms(c)
DAV:   1    -0.231895092598E+04    0.16594E-01   -0.22459E+00  4440   0.151E+00    0.367E-01
RMM:   2    -0.231896864745E+04   -0.17721E-01   -0.18912E-01  5686   0.260E-01    0.183E-01
RMM:   3    -0.231896972197E+04   -0.10745E-02   -0.17273E-02  5110   0.808E-02    0.137E-01
RMM:   4    -0.231896988085E+04   -0.15888E-03   -0.21222E-03  4994   0.200E-02    0.204E-01
RMM:   5    -0.231896958179E+04    0.29906E-03   -0.43010E-04  4495   0.138E-02    0.610E-02
RMM:   6    -0.231896954575E+04    0.36046E-04   -0.20022E-04  4226   0.109E-02    0.157E-02
RMM:   7    -0.231896954777E+04   -0.20234E-05   -0.19807E-05  2877   0.714E-03
  44 F= -.23395174E+04 E0= -.23395174E+04  d E =-.859514E-02  mag=     4.0000
       N       E                     dE             d eps       ncg     rms          rms(c)
DAV:   1    -0.231894921833E+04    0.20327E-01   -0.29511E+00  4440   0.180E+00    0.442E-01
RMM:   2    -0.231897519470E+04   -0.25976E-01   -0.27490E-01  5608   0.306E-01    0.224E-01
RMM:   3    -0.231897668701E+04   -0.14923E-02   -0.23647E-02  5023   0.100E-01    0.221E-01
RMM:   4    -0.231897672901E+04   -0.42004E-04   -0.28619E-03  5294   0.223E-02    0.199E-01
RMM:   5    -0.231897635466E+04    0.37435E-03   -0.57166E-04  4724   0.159E-02    0.669E-02
RMM:   6    -0.231897630724E+04    0.47426E-04   -0.29976E-04  4617   0.135E-02    0.172E-02
RMM:   7    -0.231897630801E+04   -0.77135E-06   -0.26144E-05  2916   0.732E-03
  45 F= -.23395240E+04 E0= -.23395240E+04  d E =-.656175E-02  mag=     4.0000
       N       E                     dE             d eps       ncg     rms          rms(c)
DAV:   1    -0.231892204543E+04    0.54262E-01   -0.59727E+00  4440   0.256E+00    0.629E-01
RMM:   2    -0.231897443717E+04   -0.52392E-01   -0.55501E-01  5558   0.434E-01    0.315E-01
RMM:   3    -0.231897738281E+04   -0.29456E-02   -0.49923E-02  4980   0.150E-01    0.241E-01
RMM:   4    -0.231897785399E+04   -0.47118E-03   -0.60019E-03  5534   0.334E-02    0.344E-01
RMM:   5    -0.231897694328E+04    0.91071E-03   -0.11609E-03  4970   0.214E-02    0.100E-01
RMM:   6    -0.231897682933E+04    0.11395E-03   -0.66660E-04  4774   0.180E-02    0.285E-02
RMM:   7    -0.231897682439E+04    0.49335E-05   -0.58096E-05  3359   0.105E-02
  46 F= -.23395242E+04 E0= -.23395242E+04  d E =-.679318E-02  mag=     4.0000
       N       E                     dE             d eps       ncg     rms          rms(c)
DAV:   1    -0.231896703317E+04    0.97962E-02   -0.11883E+00  4464   0.114E+00    0.280E-01
RMM:   2    -0.231897740707E+04   -0.10374E-01   -0.10901E-01  5682   0.196E-01    0.191E-01
RMM:   3    -0.231897836205E+04   -0.95498E-03   -0.11452E-02  5120   0.675E-02    0.268E-01
RMM:   4    -0.231897804111E+04    0.32094E-03   -0.13059E-03  4672   0.157E-02    0.978E-02
RMM:   5    -0.231897793299E+04    0.10812E-03   -0.27188E-04  3969   0.109E-02    0.579E-02
RMM:   6    -0.231897789037E+04    0.42621E-04   -0.20604E-04  4230   0.104E-02    0.235E-02
RMM:   7    -0.231897788805E+04    0.23167E-05   -0.22144E-05  2855   0.778E-03
  47 F= -.23395254E+04 E0= -.23395254E+04  d E =-.798429E-02  mag=     4.0000
       N       E                     dE             d eps       ncg     rms          rms(c)
DAV:   1    -0.231896410830E+04    0.13782E-01   -0.24000E+00  4440   0.164E+00    0.391E-01
RMM:   2    -0.231898354098E+04   -0.19433E-01   -0.20560E-01  5578   0.275E-01    0.199E-01
RMM:   3    -0.231898437543E+04   -0.83445E-03   -0.16511E-02  4963   0.925E-02    0.162E-01
RMM:   4    -0.231898448365E+04   -0.10822E-03   -0.21400E-03  5204   0.212E-02    0.206E-01
RMM:   5    -0.231898413342E+04    0.35023E-03   -0.55791E-04  4803   0.160E-02    0.651E-02
RMM:   6    -0.231898409319E+04    0.40234E-04   -0.22333E-04  4405   0.118E-02    0.160E-02
RMM:   7    -0.231898409298E+04    0.20616E-06   -0.21586E-05  2879   0.729E-03
  48 F= -.23395312E+04 E0= -.23395312E+04  d E =-.581695E-02  mag=     4.0000
       N       E                     dE             d eps       ncg     rms          rms(c)
DAV:   1    -0.231896697794E+04    0.17115E-01   -0.22670E+00  4440   0.159E+00    0.382E-01
RMM:   2    -0.231898538723E+04   -0.18409E-01   -0.19472E-01  5603   0.267E-01    0.198E-01
RMM:   3    -0.231898627244E+04   -0.88521E-03   -0.15840E-02  4963   0.878E-02    0.196E-01
RMM:   4    -0.231898626365E+04    0.87921E-05   -0.20071E-03  5173   0.199E-02    0.175E-01
RMM:   5    -0.231898596201E+04    0.30164E-03   -0.53184E-04  4756   0.156E-02    0.580E-02
RMM:   6    -0.231898592771E+04    0.34294E-04   -0.21671E-04  4403   0.121E-02    0.157E-02
RMM:   7    -0.231898592714E+04    0.57255E-06   -0.21740E-05  2889   0.638E-03
  49 F= -.23395327E+04 E0= -.23395327E+04  d E =-.727323E-02  mag=     4.0000
       N       E                     dE             d eps       ncg     rms          rms(c)
DAV:   1    -0.231898044221E+04    0.54855E-02   -0.15533E+00  4464   0.131E+00    0.294E-01
RMM:   2    -0.231898977410E+04   -0.93319E-02   -0.99806E-02  5562   0.216E-01    0.150E-01
RMM:   3    -0.231899006840E+04   -0.29429E-03   -0.77735E-03  4972   0.686E-02    0.123E-01
RMM:   4    -0.231899010889E+04   -0.40490E-04   -0.11002E-03  4926   0.169E-02    0.150E-01
RMM:   5    -0.231898994264E+04    0.16625E-03   -0.39209E-04  4506   0.139E-02    0.706E-02
RMM:   6    -0.231898991123E+04    0.31408E-04   -0.11540E-04  3992   0.939E-03    0.135E-02
RMM:   7    -0.231898991301E+04   -0.17726E-05   -0.14764E-05  2862   0.576E-03
  50 F= -.23395365E+04 E0= -.23395365E+04  d E =-.380290E-02  mag=     4.0000
       N       E                     dE             d eps       ncg     rms          rms(c)
DAV:   1    -0.231898169112E+04    0.82201E-02   -0.15072E+00  4440   0.129E+00    0.290E-01
RMM:   2    -0.231899074039E+04   -0.90493E-02   -0.96789E-02  5549   0.213E-01    0.150E-01
RMM:   3    -0.231899107404E+04   -0.33365E-03   -0.76195E-03  4981   0.698E-02    0.152E-01
RMM:   4    -0.231899104966E+04    0.24378E-04   -0.10374E-03  4873   0.162E-02    0.135E-01
RMM:   5    -0.231899087890E+04    0.17076E-03   -0.37337E-04  4541   0.139E-02    0.535E-02
RMM:   6    -0.231899085972E+04    0.19188E-04   -0.11267E-04  4043   0.990E-03    0.127E-02
RMM:   7    -0.231899085963E+04    0.83499E-07   -0.14642E-05  2855   0.541E-03
  51 F= -.23395372E+04 E0= -.23395372E+04  d E =-.456717E-02  mag=     4.0000
       N       E                     dE             d eps       ncg     rms          rms(c)
DAV:   1    -0.231898767942E+04    0.31803E-02   -0.15613E+00  4440   0.131E+00    0.281E-01
RMM:   2    -0.231899474620E+04   -0.70668E-02   -0.76270E-02  5447   0.209E-01    0.168E-01
RMM:   3    -0.231899511627E+04   -0.37006E-03   -0.56216E-03  4978   0.668E-02    0.275E-01
RMM:   4    -0.231899470957E+04    0.40670E-03   -0.88259E-04  5068   0.167E-02    0.929E-02
RMM:   5    -0.231899459050E+04    0.11907E-03   -0.37126E-04  4509   0.147E-02    0.344E-02
RMM:   6    -0.231899459025E+04    0.24324E-06   -0.74015E-05  3594   0.103E-02
  52 F= -.23395408E+04 E0= -.23395408E+04  d E =-.359376E-02  mag=     4.0000
       N       E                     dE             d eps       ncg     rms          rms(c)
DAV:   1    -0.231898474303E+04    0.98475E-02   -0.24957E+00  4440   0.165E+00    0.356E-01
RMM:   2    -0.231899604069E+04   -0.11298E-01   -0.12201E-01  5472   0.264E-01    0.203E-01
RMM:   3    -0.231899652912E+04   -0.48843E-03   -0.87699E-03  4969   0.853E-02    0.313E-01
RMM:   4    -0.231899603646E+04    0.49266E-03   -0.13643E-03  5381   0.207E-02    0.124E-01
RMM:   5    -0.231899583948E+04    0.19698E-03   -0.59254E-04  4697   0.180E-02    0.492E-02
RMM:   6    -0.231899583330E+04    0.61820E-05   -0.12607E-04  4097   0.120E-02    0.167E-02
RMM:   7    -0.231899583352E+04   -0.22058E-06   -0.16484E-05  2875   0.410E-03
  53 F= -.23395419E+04 E0= -.23395419E+04  d E =-.466258E-02  mag=     4.0000
       N       E                     dE             d eps       ncg     rms          rms(c)
DAV:   1    -0.231899033616E+04    0.54971E-02   -0.21550E+00  4440   0.155E+00    0.318E-01
RMM:   2    -0.231900027117E+04   -0.99350E-02   -0.10640E-01  5354   0.245E-01    0.226E-01
RMM:   3    -0.231900084471E+04   -0.57354E-03   -0.83638E-03  5024   0.834E-02    0.338E-01
RMM:   4    -0.231900020522E+04    0.63949E-03   -0.12221E-03  5444   0.203E-02    0.107E-01
RMM:   5    -0.231900004010E+04    0.16512E-03   -0.53883E-04  4658   0.174E-02    0.451E-02
RMM:   6    -0.231900003441E+04    0.56949E-05   -0.11395E-04  4068   0.119E-02    0.152E-02
RMM:   7    -0.231900003302E+04    0.13858E-05   -0.15003E-05  2865   0.399E-03
  54 F= -.23395459E+04 E0= -.23395459E+04  d E =-.399206E-02  mag=     4.0000
       N       E                     dE             d eps       ncg     rms          rms(c)
DAV:   1    -0.231899463606E+04    0.53983E-02   -0.14447E+00  4464   0.127E+00    0.260E-01
RMM:   2    -0.231900130675E+04   -0.66707E-02   -0.71445E-02  5389   0.201E-01    0.187E-01
RMM:   3    -0.231900170101E+04   -0.39425E-03   -0.56571E-03  5000   0.692E-02    0.279E-01
RMM:   4    -0.231900125943E+04    0.44157E-03   -0.82658E-04  5196   0.168E-02    0.872E-02
RMM:   5    -0.231900114446E+04    0.11497E-03   -0.37021E-04  4506   0.147E-02    0.366E-02
RMM:   6    -0.231900113930E+04    0.51656E-05   -0.80680E-05  3775   0.105E-02
  55 F= -.23395468E+04 E0= -.23395468E+04  d E =-.492824E-02  mag=     4.0000
       N       E                     dE             d eps       ncg     rms          rms(c)
DAV:   1    -0.231899141272E+04    0.97317E-02   -0.27649E+00  4440   0.178E+00    0.385E-01
RMM:   2    -0.231900698276E+04   -0.15570E-01   -0.16449E-01  5385   0.286E-01    0.275E-01
RMM:   3    -0.231900799934E+04   -0.10166E-02   -0.13895E-02  5060   0.103E-01    0.399E-01
RMM:   4    -0.231900712284E+04    0.87650E-03   -0.19394E-03  5574   0.235E-02    0.125E-01
RMM:   5    -0.231900690448E+04    0.21836E-03   -0.60423E-04  4798   0.183E-02    0.600E-02
RMM:   6    -0.231900688467E+04    0.19812E-04   -0.19867E-04  4384   0.129E-02    0.195E-02
RMM:   7    -0.231900688285E+04    0.18147E-05   -0.21537E-05  2909   0.532E-03
  56 F= -.23395522E+04 E0= -.23395522E+04  d E =-.536923E-02  mag=     4.0000
       N       E                     dE             d eps       ncg     rms          rms(c)
DAV:   1    -0.231900044164E+04    0.64430E-02   -0.14101E+00  4452   0.127E+00    0.276E-01
RMM:   2    -0.231900840703E+04   -0.79654E-02   -0.83943E-02  5429   0.205E-01    0.212E-01
RMM:   3    -0.231900894945E+04   -0.54241E-03   -0.71150E-03  5055   0.708E-02    0.300E-01
RMM:   4    -0.231900843548E+04    0.51397E-03   -0.99901E-04  5229   0.172E-02    0.868E-02
RMM:   5    -0.231900831864E+04    0.11684E-03   -0.32818E-04  4463   0.137E-02    0.400E-02
RMM:   6    -0.231900830825E+04    0.10386E-04   -0.10960E-04  4091   0.103E-02    0.120E-02
RMM:   7    -0.231900830702E+04    0.12355E-05   -0.13356E-05  2851   0.486E-03
  57 F= -.23395534E+04 E0= -.23395534E+04  d E =-.652636E-02  mag=     4.0000
       N       E                     dE             d eps       ncg     rms          rms(c)
DAV:   1    -0.231899203553E+04    0.16273E-01   -0.31381E+00  4440   0.190E+00    0.424E-01
RMM:   2    -0.231901367948E+04   -0.21644E-01   -0.22490E-01  5476   0.313E-01    0.362E-01
RMM:   3    -0.231901511044E+04   -0.14310E-02   -0.18927E-02  5107   0.107E-01    0.473E-01
RMM:   4    -0.231901385667E+04    0.12538E-02   -0.26833E-03  5560   0.260E-02    0.132E-01
RMM:   5    -0.231901357442E+04    0.28225E-03   -0.69211E-04  4890   0.190E-02    0.649E-02
RMM:   6    -0.231901354202E+04    0.32396E-04   -0.27060E-04  4624   0.142E-02    0.225E-02
RMM:   7    -0.231901354027E+04    0.17460E-05   -0.26516E-05  3016   0.601E-03
  58 F= -.23395579E+04 E0= -.23395579E+04  d E =-.453241E-02  mag=     4.0000
       N       E                     dE             d eps       ncg     rms          rms(c)
DAV:   1    -0.231900828627E+04    0.52557E-02   -0.86948E-01  4496   0.999E-01    0.225E-01
RMM:   2    -0.231901431707E+04   -0.60308E-02   -0.62573E-02  5526   0.165E-01    0.200E-01
RMM:   3    -0.231901472069E+04   -0.40362E-03   -0.52665E-03  5095   0.552E-02    0.257E-01
RMM:   4    -0.231901434185E+04    0.37884E-03   -0.72361E-04  4733   0.138E-02    0.684E-02
RMM:   5    -0.231901426203E+04    0.79814E-04   -0.21594E-04  4220   0.110E-02    0.338E-02
RMM:   6    -0.231901425185E+04    0.10184E-04   -0.82197E-05  3845   0.872E-03    0.110E-02
RMM:   7    -0.231901425182E+04    0.34735E-07   -0.11429E-05  2834   0.543E-03
  59 F= -.23395582E+04 E0= -.23395582E+04  d E =-.487486E-02  mag=     4.0000
       N       E                     dE             d eps       ncg     rms          rms(c)
DAV:   1    -0.231899036433E+04    0.23888E-01   -0.38113E+00  4440   0.209E+00    0.473E-01
RMM:   2    -0.231901882361E+04   -0.28459E-01   -0.29349E-01  5532   0.348E-01    0.432E-01
RMM:   3    -0.231902074419E+04   -0.19206E-02   -0.24592E-02  5155   0.120E-01    0.551E-01
RMM:   4    -0.231901906563E+04    0.16786E-02   -0.33854E-03  5581   0.287E-02    0.141E-01
RMM:   5    -0.231901873798E+04    0.32765E-03   -0.86959E-04  4883   0.200E-02    0.686E-02
RMM:   6    -0.231901869862E+04    0.39356E-04   -0.32716E-04  4801   0.156E-02    0.251E-02
RMM:   7    -0.231901869947E+04   -0.84902E-06   -0.30849E-05  3022   0.644E-03
  60 F= -.23395620E+04 E0= -.23395620E+04  d E =-.377040E-02  mag=     4.0000
       N       E                     dE             d eps       ncg     rms          rms(c)
DAV:   1    -0.231901182196E+04    0.68767E-02   -0.99888E-01  4480   0.107E+00    0.244E-01
RMM:   2    -0.231901932590E+04   -0.75039E-02   -0.77208E-02  5578   0.179E-01    0.232E-01
RMM:   3    -0.231901982546E+04   -0.49956E-03   -0.64942E-03  5144   0.575E-02    0.287E-01
RMM:   4    -0.231901936180E+04    0.46366E-03   -0.89329E-04  4737   0.148E-02    0.721E-02
RMM:   5    -0.231901927365E+04    0.88149E-04   -0.23389E-04  4239   0.111E-02    0.364E-02
RMM:   6    -0.231901926335E+04    0.10296E-04   -0.92936E-05  3952   0.912E-03    0.129E-02
RMM:   7    -0.231901926397E+04   -0.61713E-06   -0.12022E-05  2843   0.554E-03
  61 F= -.23395622E+04 E0= -.23395622E+04  d E =-.398528E-02  mag=     4.0000
       N       E                     dE             d eps       ncg     rms          rms(c)
DAV:   1    -0.231899871209E+04    0.20551E-01   -0.35905E+00  4440   0.199E+00    0.443E-01
RMM:   2    -0.231902425954E+04   -0.25547E-01   -0.26494E-01  5576   0.331E-01    0.406E-01
RMM:   3    -0.231902595768E+04   -0.16981E-02   -0.20898E-02  5176   0.108E-01    0.530E-01
RMM:   4    -0.231902442257E+04    0.15351E-02   -0.31374E-03  5556   0.273E-02    0.134E-01
RMM:   5    -0.231902412815E+04    0.29443E-03   -0.78269E-04  4781   0.190E-02    0.622E-02
RMM:   6    -0.231902409502E+04    0.33125E-04   -0.26559E-04  4600   0.146E-02    0.192E-02
RMM:   7    -0.231902409772E+04   -0.26978E-05   -0.27506E-05  2968   0.609E-03
  62 F= -.23395663E+04 E0= -.23395663E+04  d E =-.412903E-02  mag=     4.0000
       N       E                     dE             d eps       ncg     rms          rms(c)
DAV:   1    -0.231899950859E+04    0.24586E-01   -0.36337E+00  4440   0.200E+00    0.446E-01
RMM:   2    -0.231902542999E+04   -0.25921E-01   -0.26851E-01  5575   0.333E-01    0.416E-01
RMM:   3    -0.231902709943E+04   -0.16694E-02   -0.21012E-02  5210   0.105E-01    0.535E-01
RMM:   4    -0.231902552429E+04    0.15751E-02   -0.31813E-03  5514   0.273E-02    0.135E-01
RMM:   5    -0.231902521990E+04    0.30439E-03   -0.77167E-04  4792   0.190E-02    0.620E-02
RMM:   6    -0.231902518862E+04    0.31277E-04   -0.26642E-04  4664   0.146E-02    0.186E-02
RMM:   7    -0.231902519182E+04   -0.32014E-05   -0.28590E-05  2981   0.601E-03
  63 F= -.23395667E+04 E0= -.23395667E+04  d E =-.450732E-02  mag=     4.0000
       N       E                     dE             d eps       ncg     rms          rms(c)
DAV:   1    -0.231902205561E+04    0.31330E-02   -0.45058E-01  4512   0.705E-01    0.155E-01
RMM:   2    -0.231902521071E+04   -0.31551E-02   -0.32789E-02  5638   0.118E-01    0.137E-01
RMM:   3    -0.231902544949E+04   -0.23878E-03   -0.28395E-03  5014   0.437E-02    0.184E-01
RMM:   4    -0.231902527013E+04    0.17937E-03   -0.38773E-04  3343   0.101E-02    0.494E-02
RMM:   5    -0.231902523502E+04    0.35112E-04   -0.10020E-04  3377   0.799E-03    0.266E-02
RMM:   6    -0.231902522984E+04    0.51825E-05   -0.49222E-05  3166   0.697E-03
  64 F= -.23395670E+04 E0= -.23395670E+04  d E =-.479818E-02  mag=     4.0000
       N       E                     dE             d eps       ncg     rms          rms(c)
DAV:   1    -0.231900786516E+04    0.17370E-01   -0.34527E+00  4440   0.191E+00    0.432E-01
RMM:   2    -0.231902990706E+04   -0.22042E-01   -0.23394E-01  5606   0.318E-01    0.319E-01
RMM:   3    -0.231903162412E+04   -0.17171E-02   -0.19399E-02  5175   0.115E-01    0.481E-01
RMM:   4    -0.231903040951E+04    0.12146E-02   -0.27585E-03  5674   0.266E-02    0.137E-01
RMM:   5    -0.231903012198E+04    0.28753E-03   -0.68751E-04  4748   0.187E-02    0.664E-02
RMM:   6    -0.231903008892E+04    0.33066E-04   -0.24500E-04  4597   0.137E-02    0.334E-02
RMM:   7    -0.231903008357E+04    0.53448E-05   -0.27648E-05  3016   0.584E-03
  65 F= -.23395710E+04 E0= -.23395710E+04  d E =-.396940E-02  mag=     4.0000
       N       E                     dE             d eps       ncg     rms          rms(c)
DAV:   1    -0.231902867347E+04    0.14154E-02   -0.28440E-01  4592   0.549E-01    0.125E-01
RMM:   2    -0.231903052028E+04   -0.18468E-02   -0.19505E-02  5721   0.931E-02    0.103E-01
RMM:   3    -0.231903067335E+04   -0.15307E-03   -0.16365E-03  4718   0.315E-02    0.150E-01
RMM:   4    -0.231903055012E+04    0.12323E-03   -0.23578E-04  3020   0.831E-03    0.386E-02
RMM:   5    -0.231903052583E+04    0.24291E-04   -0.66600E-05  3287   0.672E-03    0.181E-02
RMM:   6    -0.231903052364E+04    0.21837E-05   -0.23450E-05  2871   0.587E-03
  66 F= -.23395712E+04 E0= -.23395712E+04  d E =-.415505E-02  mag=     4.0000
       N       E                     dE             d eps       ncg     rms          rms(c)
DAV:   1    -0.231902170174E+04    0.88241E-02   -0.20233E+00  4440   0.149E+00    0.338E-01
RMM:   2    -0.231903351637E+04   -0.11815E-01   -0.12788E-01  5508   0.244E-01    0.164E-01
RMM:   3    -0.231903379083E+04   -0.27446E-03   -0.91736E-03  4985   0.808E-02    0.104E-01
RMM:   4    -0.231903366845E+04    0.12238E-03   -0.14094E-03  4621   0.230E-02    0.631E-02
RMM:   5    -0.231903369847E+04   -0.30029E-04   -0.28813E-04  4407   0.163E-02    0.111E-01
RMM:   6    -0.231903363065E+04    0.67829E-04   -0.93259E-05  3196   0.685E-03    0.206E-02
RMM:   7    -0.231903362820E+04    0.24487E-05   -0.13519E-05  2859   0.456E-03
  67 F= -.23395739E+04 E0= -.23395739E+04  d E =-.270504E-02  mag=     4.0000
       N       E                     dE             d eps       ncg     rms          rms(c)
DAV:   1    -0.231903302339E+04    0.60726E-03   -0.13131E-01  4624   0.379E-01    0.872E-02
RMM:   2    -0.231903379656E+04   -0.77317E-03   -0.83226E-03  5626   0.629E-02    0.536E-02
RMM:   3    -0.231903384890E+04   -0.52347E-04   -0.66518E-04  4149   0.221E-02    0.829E-02
RMM:   4    -0.231903381272E+04    0.36182E-04   -0.91734E-05  2874   0.582E-03    0.290E-02
RMM:   5    -0.231903379930E+04    0.13416E-04   -0.32497E-05  2921   0.509E-03    0.115E-02
RMM:   6    -0.231903379876E+04    0.54007E-06   -0.11902E-05  2841   0.448E-03
  68 F= -.23395739E+04 E0= -.23395739E+04  d E =-.277413E-02  mag=     4.0000
       N       E                     dE             d eps       ncg     rms          rms(c)
DAV:   1    -0.231902408163E+04    0.97177E-02   -0.19465E+00  4408   0.149E+00    0.330E-01
RMM:   2    -0.231903673570E+04   -0.12654E-01   -0.13314E-01  5410   0.241E-01    0.235E-01
RMM:   3    -0.231903763510E+04   -0.89940E-03   -0.10148E-02  4936   0.789E-02    0.370E-01
RMM:   4    -0.231903686402E+04    0.77108E-03   -0.14687E-03  5288   0.195E-02    0.982E-02
RMM:   5    -0.231903669695E+04    0.16707E-03   -0.39243E-04  4638   0.149E-02    0.425E-02
RMM:   6    -0.231903668685E+04    0.10106E-04   -0.13711E-04  4223   0.114E-02    0.111E-02
RMM:   7    -0.231903668807E+04   -0.12229E-05   -0.13286E-05  2871   0.501E-03
  69 F= -.23395766E+04 E0= -.23395766E+04  d E =-.268603E-02  mag=     4.0000
       N       E                     dE             d eps       ncg     rms          rms(c)
DAV:   1    -0.231903120930E+04    0.54775E-02   -0.94186E-01  4432   0.103E+00    0.231E-01
RMM:   2    -0.231903734132E+04   -0.61320E-02   -0.64357E-02  5530   0.169E-01    0.173E-01
RMM:   3    -0.231903779686E+04   -0.45554E-03   -0.49591E-03  4983   0.554E-02    0.264E-01
RMM:   4    -0.231903740091E+04    0.39595E-03   -0.70715E-04  4590   0.138E-02    0.682E-02
RMM:   5    -0.231903731938E+04    0.81532E-04   -0.20092E-04  4181   0.111E-02    0.301E-02
RMM:   6    -0.231903731456E+04    0.48170E-05   -0.72085E-05  3767   0.889E-03
  70 F= -.23395771E+04 E0= -.23395771E+04  d E =-.317256E-02  mag=     4.0000
       N       E                     dE             d eps       ncg     rms          rms(c)
DAV:   1    -0.231903159745E+04    0.57219E-02   -0.12308E+00  4452   0.119E+00    0.261E-01
RMM:   2    -0.231904001572E+04   -0.84183E-02   -0.86896E-02  5570   0.196E-01    0.242E-01
RMM:   3    -0.231904056551E+04   -0.54979E-03   -0.69997E-03  5011   0.736E-02    0.308E-01
RMM:   4    -0.231904001014E+04    0.55537E-03   -0.96460E-04  5047   0.167E-02    0.778E-02
RMM:   5    -0.231903990115E+04    0.10900E-03   -0.27724E-04  4373   0.126E-02    0.352E-02
RMM:   6    -0.231903989349E+04    0.76576E-05   -0.95451E-05  4032   0.995E-03
  71 F= -.23395795E+04 E0= -.23395795E+04  d E =-.240945E-02  mag=     4.0000
       N       E                     dE             d eps       ncg     rms          rms(c)
DAV:   1    -0.231902918887E+04    0.10712E-01   -0.17302E+00  4440   0.141E+00    0.309E-01
RMM:   2    -0.231904101763E+04   -0.11829E-01   -0.12222E-01  5494   0.232E-01    0.283E-01
RMM:   3    -0.231904178342E+04   -0.76578E-03   -0.98068E-03  5000   0.874E-02    0.365E-01
RMM:   4    -0.231904100155E+04    0.78187E-03   -0.13546E-03  5308   0.197E-02    0.926E-02
RMM:   5    -0.231904084456E+04    0.15699E-03   -0.39109E-04  4625   0.146E-02    0.413E-02
RMM:   6    -0.231904083057E+04    0.13992E-04   -0.13335E-04  4212   0.112E-02    0.116E-02
RMM:   7    -0.231904083138E+04   -0.81465E-06   -0.14142E-05  2880   0.528E-03
  72 F= -.23395803E+04 E0= -.23395803E+04  d E =-.314959E-02  mag=     4.0000
       N       E                     dE             d eps       ncg     rms          rms(c)
DAV:   1    -0.231903452805E+04    0.63025E-02   -0.14578E+00  4440   0.130E+00    0.281E-01
RMM:   2    -0.231904358638E+04   -0.90583E-02   -0.91582E-02  5409   0.211E-01    0.323E-01
RMM:   3    -0.231904383628E+04   -0.24990E-03   -0.75117E-03  4928   0.714E-02    0.305E-01
RMM:   4    -0.231904326711E+04    0.56917E-03   -0.10253E-03  5140   0.179E-02    0.840E-02
RMM:   5    -0.231904313786E+04    0.12925E-03   -0.35327E-04  4715   0.144E-02    0.358E-02
RMM:   6    -0.231904313460E+04    0.32579E-05   -0.10413E-04  4153   0.102E-02    0.121E-02
RMM:   7    -0.231904313518E+04   -0.57950E-06   -0.11549E-05  2866   0.459E-03
  73 F= -.23395825E+04 E0= -.23395825E+04  d E =-.219730E-02  mag=     4.0000
       N       E                     dE             d eps       ncg     rms          rms(c)
DAV:   1    -0.231903726674E+04    0.58679E-02   -0.11075E+00  4452   0.113E+00    0.245E-01
RMM:   2    -0.231904417076E+04   -0.69040E-02   -0.69664E-02  5393   0.184E-01    0.288E-01
RMM:   3    -0.231904433232E+04   -0.16156E-03   -0.57415E-03  4920   0.628E-02    0.264E-01
RMM:   4    -0.231904390377E+04    0.42854E-03   -0.77983E-04  5027   0.157E-02    0.733E-02
RMM:   5    -0.231904380230E+04    0.10147E-03   -0.27104E-04  4484   0.128E-02    0.314E-02
RMM:   6    -0.231904379863E+04    0.36711E-05   -0.81711E-05  3881   0.935E-03
  74 F= -.23395830E+04 E0= -.23395830E+04  d E =-.276955E-02  mag=     4.0000
       N       E                     dE             d eps       ncg     rms          rms(c)
DAV:   1    -0.231903863586E+04    0.51664E-02   -0.16213E+00  4440   0.137E+00    0.286E-01
RMM:   2    -0.231904725105E+04   -0.86152E-02   -0.87119E-02  5362   0.219E-01    0.335E-01
RMM:   3    -0.231904735754E+04   -0.10649E-03   -0.73509E-03  4957   0.835E-02    0.294E-01
RMM:   4    -0.231904680755E+04    0.54999E-03   -0.96833E-04  5290   0.188E-02    0.871E-02
RMM:   5    -0.231904667510E+04    0.13245E-03   -0.40217E-04  4772   0.156E-02    0.343E-02
RMM:   6    -0.231904667456E+04    0.54095E-06   -0.10066E-04  4164   0.103E-02    0.151E-02
RMM:   7    -0.231904667403E+04    0.52726E-06   -0.13456E-05  2869   0.441E-03
  75 F= -.23395859E+04 E0= -.23395859E+04  d E =-.288367E-02  mag=     4.0000
       N       E                     dE             d eps       ncg     rms          rms(c)
DAV:   1    -0.231903973796E+04    0.69366E-02   -0.16198E+00  4440   0.137E+00    0.285E-01
RMM:   2    -0.231904836696E+04   -0.86290E-02   -0.86989E-02  5366   0.219E-01    0.344E-01
RMM:   3    -0.231904841173E+04   -0.44769E-04   -0.71439E-03  4978   0.746E-02    0.287E-01
RMM:   4    -0.231904787470E+04    0.53703E-03   -0.95474E-04  5184   0.185E-02    0.870E-02
RMM:   5    -0.231904773407E+04    0.14062E-03   -0.41857E-04  4854   0.158E-02    0.341E-02
RMM:   6    -0.231904773191E+04    0.21583E-05   -0.99940E-05  4199   0.102E-02
  76 F= -.23395870E+04 E0= -.23395870E+04  d E =-.395124E-02  mag=     4.0000
       N       E                     dE             d eps       ncg     rms          rms(c)
DAV:   1    -0.231904047547E+04    0.72586E-02   -0.22509E+00  4440   0.162E+00    0.352E-01
RMM:   2    -0.231905164715E+04   -0.11172E-01   -0.11291E-01  5244   0.257E-01    0.402E-01
RMM:   3    -0.231905169046E+04   -0.43317E-04   -0.91919E-03  4970   0.951E-02    0.363E-01
RMM:   4    -0.231905083240E+04    0.85806E-03   -0.13045E-03  5300   0.226E-02    0.101E-01
RMM:   5    -0.231905066370E+04    0.16871E-03   -0.57327E-04  4960   0.186E-02    0.376E-02
RMM:   6    -0.231905066414E+04   -0.43951E-06   -0.11033E-04  4281   0.113E-02    0.139E-02
RMM:   7    -0.231905066516E+04   -0.10225E-05   -0.14796E-05  2875   0.416E-03
  77 F= -.23395901E+04 E0= -.23395901E+04  d E =-.313183E-02  mag=     4.0000
       N       E                     dE             d eps       ncg     rms          rms(c)
DAV:   1    -0.231904520540E+04    0.54587E-02   -0.12300E+00  4464   0.119E+00    0.260E-01
RMM:   2    -0.231905131766E+04   -0.61123E-02   -0.61561E-02  5332   0.191E-01    0.305E-01
RMM:   3    -0.231905131568E+04    0.19780E-05   -0.49997E-03  4964   0.649E-02    0.263E-01
RMM:   4    -0.231905085278E+04    0.46290E-03   -0.70669E-04  5057   0.168E-02    0.745E-02
RMM:   5    -0.231905075356E+04    0.99221E-04   -0.31549E-04  4721   0.143E-02    0.282E-02
RMM:   6    -0.231905075262E+04    0.94040E-06   -0.66809E-05  3893   0.930E-03
  78 F= -.23395904E+04 E0= -.23395904E+04  d E =-.336666E-02  mag=     4.0000
       N       E                     dE             d eps       ncg     rms          rms(c)
DAV:   1    -0.231904444315E+04    0.63104E-02   -0.15568E+00  4440   0.134E+00    0.272E-01
RMM:   2    -0.231905294482E+04   -0.85017E-02   -0.84477E-02  5354   0.215E-01    0.357E-01
RMM:   3    -0.231905285645E+04    0.88371E-04   -0.69820E-03  4955   0.793E-02    0.257E-01
RMM:   4    -0.231905242495E+04    0.43151E-03   -0.88817E-04  5177   0.177E-02    0.827E-02
RMM:   5    -0.231905231113E+04    0.11382E-03   -0.31452E-04  4625   0.143E-02    0.349E-02
RMM:   6    -0.231905231173E+04   -0.60195E-06   -0.90904E-05  4051   0.102E-02
  79 F= -.23395921E+04 E0= -.23395921E+04  d E =-.176961E-02  mag=     4.0000
       N       E                     dE             d eps       ncg     rms          rms(c)
DAV:   1    -0.231903723945E+04    0.15072E-01   -0.30270E+00  4440   0.187E+00    0.379E-01
RMM:   2    -0.231905378240E+04   -0.16543E-01   -0.16449E-01  5300   0.299E-01    0.498E-01
RMM:   3    -0.231905357902E+04    0.20338E-03   -0.13599E-02  4971   0.112E-01    0.358E-01
RMM:   4    -0.231905274409E+04    0.83493E-03   -0.17320E-03  5355   0.248E-02    0.116E-01
RMM:   5    -0.231905251850E+04    0.22559E-03   -0.60857E-04  4811   0.195E-02    0.486E-02
RMM:   6    -0.231905251576E+04    0.27415E-05   -0.17532E-04  4401   0.135E-02    0.162E-02
RMM:   7    -0.231905251722E+04   -0.14629E-05   -0.20929E-05  2923   0.515E-03
  80 F= -.23395926E+04 E0= -.23395926E+04  d E =-.227157E-02  mag=     4.0000
       N       E                     dE             d eps       ncg     rms          rms(c)
DAV:   1    -0.231904561975E+04    0.68960E-02   -0.15346E+00  4452   0.135E+00    0.313E-01
RMM:   2    -0.231905553352E+04   -0.99138E-02   -0.97998E-02  5434   0.224E-01    0.409E-01
RMM:   3    -0.231905540346E+04    0.13005E-03   -0.84066E-03  5009   0.735E-02    0.299E-01
RMM:   4    -0.231905480795E+04    0.59551E-03   -0.10876E-03  5098   0.194E-02    0.850E-02
RMM:   5    -0.231905466673E+04    0.14122E-03   -0.39797E-04  5026   0.158E-02    0.378E-02
RMM:   6    -0.231905465792E+04    0.88058E-05   -0.10786E-04  4266   0.998E-03    0.129E-02
RMM:   7    -0.231905465749E+04    0.43216E-06   -0.14545E-05  2874   0.441E-03
  81 F= -.23395950E+04 E0= -.23395950E+04  d E =-.237633E-02  mag=     4.0000
       N       E                     dE             d eps       ncg     rms          rms(c)
DAV:   1    -0.231905299867E+04    0.16593E-02   -0.28801E-01  4608   0.585E-01    0.137E-01
RMM:   2    -0.231905487769E+04   -0.18790E-02   -0.18490E-02  5468   0.977E-02    0.184E-01
RMM:   3    -0.231905483837E+04    0.39318E-04   -0.16265E-03  4699   0.353E-02    0.128E-01
RMM:   4    -0.231905472730E+04    0.11107E-03   -0.20492E-04  3406   0.893E-03    0.368E-02
RMM:   5    -0.231905469835E+04    0.28942E-04   -0.74164E-05  3601   0.770E-03    0.175E-02
RMM:   6    -0.231905469618E+04    0.21760E-05   -0.22268E-05  2863   0.629E-03
  82 F= -.23395951E+04 E0= -.23395951E+04  d E =-.251788E-02  mag=     4.0000
       N       E                     dE             d eps       ncg     rms          rms(c)
DAV:   1    -0.231905148891E+04    0.32094E-02   -0.71716E-01  4464   0.928E-01    0.223E-01
RMM:   2    -0.231905687945E+04   -0.53905E-02   -0.52856E-02  5458   0.156E-01    0.306E-01
RMM:   3    -0.231905678490E+04    0.94555E-04   -0.46646E-03  4900   0.571E-02    0.205E-01
RMM:   4    -0.231905651131E+04    0.27358E-03   -0.59050E-04  4618   0.137E-02    0.584E-02
RMM:   5    -0.231905643829E+04    0.73025E-04   -0.17375E-04  4242   0.112E-02    0.312E-02
RMM:   6    -0.231905642939E+04    0.88977E-05   -0.67537E-05  3802   0.841E-03
  83 F= -.23395972E+04 E0= -.23395972E+04  d E =-.202425E-02  mag=     4.0000
       N       E                     dE             d eps       ncg     rms          rms(c)
DAV:   1    -0.231905240784E+04    0.40304E-02   -0.61249E-01  4464   0.858E-01    0.207E-01
RMM:   2    -0.231905700969E+04   -0.46018E-02   -0.45262E-02  5620   0.146E-01    0.283E-01
RMM:   3    -0.231905693696E+04    0.72729E-04   -0.40604E-03  5123   0.567E-02    0.192E-01
RMM:   4    -0.231905669694E+04    0.24002E-03   -0.50825E-04  4599   0.132E-02    0.545E-02
RMM:   5    -0.231905662930E+04    0.67643E-04   -0.15279E-04  4167   0.106E-02    0.290E-02
RMM:   6    -0.231905661819E+04    0.11106E-04   -0.59290E-05  3640   0.820E-03    0.882E-03
RMM:   7    -0.231905661745E+04    0.74248E-06   -0.11356E-05  2844   0.523E-03
  84 F= -.23395976E+04 E0= -.23395976E+04  d E =-.248237E-02  mag=     4.0000
       N       E                     dE             d eps       ncg     rms          rms(c)
DAV:   1    -0.231905199912E+04    0.46191E-02   -0.85767E-01  4452   0.101E+00    0.242E-01
RMM:   2    -0.231905865517E+04   -0.66561E-02   -0.64190E-02  5386   0.169E-01    0.365E-01
RMM:   3    -0.231905836555E+04    0.28962E-03   -0.55135E-03  4921   0.597E-02    0.206E-01
RMM:   4    -0.231905808862E+04    0.27693E-03   -0.67343E-04  4742   0.145E-02    0.632E-02
RMM:   5    -0.231905801076E+04    0.77852E-04   -0.17747E-04  4232   0.115E-02    0.374E-02
RMM:   6    -0.231905800201E+04    0.87500E-05   -0.82224E-05  3923   0.899E-03
  85 F= -.23395995E+04 E0= -.23395995E+04  d E =-.185709E-02  mag=     4.0000
       N       E                     dE             d eps       ncg     rms          rms(c)
DAV:   1    -0.231905321537E+04    0.47954E-02   -0.67381E-01  4464   0.899E-01    0.215E-01
RMM:   2    -0.231905841944E+04   -0.52041E-02   -0.50448E-02  5673   0.152E-01    0.317E-01
RMM:   3    -0.231905823582E+04    0.18362E-03   -0.44268E-03  5248   0.573E-02    0.186E-01
RMM:   4    -0.231905801344E+04    0.22237E-03   -0.53095E-04  4629   0.133E-02    0.563E-02
RMM:   5    -0.231905795338E+04    0.60056E-04   -0.14455E-04  4122   0.103E-02    0.326E-02
RMM:   6    -0.231905794568E+04    0.77084E-05   -0.62405E-05  3580   0.835E-03
  86 F= -.23395998E+04 E0= -.23395998E+04  d E =-.222093E-02  mag=     4.0000
       N       E                     dE             d eps       ncg     rms          rms(c)
DAV:   1    -0.231905217424E+04    0.57791E-02   -0.11613E+00  4452   0.117E+00    0.284E-01
RMM:   2    -0.231906020828E+04   -0.80340E-02   -0.77798E-02  5455   0.195E-01    0.410E-01
RMM:   3    -0.231905988894E+04    0.31935E-03   -0.70093E-03  5040   0.778E-02    0.247E-01
RMM:   4    -0.231905948374E+04    0.40519E-03   -0.82492E-04  4943   0.175E-02    0.717E-02
RMM:   5    -0.231905938707E+04    0.96670E-04   -0.27636E-04  4639   0.138E-02    0.387E-02
RMM:   6    -0.231905937791E+04    0.91600E-05   -0.96373E-05  4161   0.976E-03
  87 F= -.23396018E+04 E0= -.23396018E+04  d E =-.193850E-02  mag=     4.0000
       N       E                     dE             d eps       ncg     rms          rms(c)
DAV:   1    -0.231905751587E+04    0.18712E-02   -0.28236E-01  4576   0.579E-01    0.141E-01
RMM:   2    -0.231905948795E+04   -0.19721E-02   -0.19138E-02  5681   0.986E-02    0.202E-01
RMM:   3    -0.231905940745E+04    0.80502E-04   -0.17086E-03  4892   0.358E-02    0.125E-01
RMM:   4    -0.231905930518E+04    0.10227E-03   -0.19733E-04  3366   0.896E-03    0.358E-02
RMM:   5    -0.231905928032E+04    0.24855E-04   -0.72172E-05  3525   0.750E-03    0.189E-02
RMM:   6    -0.231905927757E+04    0.27536E-05   -0.23091E-05  2873   0.640E-03
  88 F= -.23396019E+04 E0= -.23396019E+04  d E =-.208831E-02  mag=     4.0000
       N       E                     dE             d eps       ncg     rms          rms(c)
DAV:   1    -0.231905408465E+04    0.51957E-02   -0.12315E+00  4440   0.120E+00    0.278E-01
RMM:   2    -0.231906168375E+04   -0.75991E-02   -0.73157E-02  5342   0.194E-01    0.406E-01
RMM:   3    -0.231906131820E+04    0.36555E-03   -0.64534E-03  5009   0.723E-02    0.241E-01
RMM:   4    -0.231906092225E+04    0.39595E-03   -0.77516E-04  4934   0.169E-02    0.725E-02
RMM:   5    -0.231906082583E+04    0.96425E-04   -0.25387E-04  4706   0.136E-02    0.357E-02
RMM:   6    -0.231906082023E+04    0.55973E-05   -0.83903E-05  4078   0.947E-03
  89 F= -.23396040E+04 E0= -.23396040E+04  d E =-.209330E-02  mag=     4.0000
       N       E                     dE             d eps       ncg     rms          rms(c)
DAV:   1    -0.231905743838E+04    0.33874E-02   -0.60130E-01  4464   0.837E-01    0.195E-01
RMM:   2    -0.231906116759E+04   -0.37292E-02   -0.35936E-02  5507   0.137E-01    0.284E-01
RMM:   3    -0.231906098930E+04    0.17828E-03   -0.31948E-03  5184   0.511E-02    0.171E-01
RMM:   4    -0.231906079144E+04    0.19786E-03   -0.38109E-04  4419   0.120E-02    0.509E-02
RMM:   5    -0.231906074230E+04    0.49140E-04   -0.12346E-04  4104   0.999E-03    0.248E-02
RMM:   6    -0.231906073868E+04    0.36225E-05   -0.40250E-05  3145   0.764E-03
  90 F= -.23396043E+04 E0= -.23396043E+04  d E =-.239697E-02  mag=     4.0000
       N       E                     dE             d eps       ncg     rms          rms(c)
DAV:   1    -0.231905410476E+04    0.66375E-02   -0.14990E+00  4440   0.132E+00    0.311E-01
RMM:   2    -0.231906318532E+04   -0.90806E-02   -0.87190E-02  5333   0.215E-01    0.453E-01
RMM:   3    -0.231906272662E+04    0.45870E-03   -0.77548E-03  5033   0.813E-02    0.271E-01
RMM:   4    -0.231906221090E+04    0.51571E-03   -0.93958E-04  4980   0.190E-02    0.812E-02
RMM:   5    -0.231906209140E+04    0.11950E-03   -0.33087E-04  5028   0.155E-02    0.402E-02
RMM:   6    -0.231906208130E+04    0.10098E-04   -0.99505E-05  4211   0.975E-03    0.112E-02
RMM:   7    -0.231906208050E+04    0.80098E-06   -0.13537E-05  2867   0.455E-03
  91 F= -.23396063E+04 E0= -.23396063E+04  d E =-.192932E-02  mag=     4.0000
       N       E                     dE             d eps       ncg     rms          rms(c)
DAV:   1    -0.231906129174E+04    0.78956E-03   -0.12122E-01  4640   0.377E-01    0.888E-02
RMM:   2    -0.231906203360E+04   -0.74186E-03   -0.71138E-03  5455   0.621E-02    0.131E-01
RMM:   3    -0.231906199351E+04    0.40082E-04   -0.63642E-04  4207   0.240E-02    0.775E-02
RMM:   4    -0.231906195048E+04    0.43033E-04   -0.73088E-05  2917   0.620E-03    0.232E-02
RMM:   5    -0.231906193950E+04    0.10984E-04   -0.29166E-05  2934   0.527E-03    0.129E-02
RMM:   6    -0.231906193841E+04    0.10853E-05   -0.10834E-05  2841   0.475E-03
  92 F= -.23396063E+04 E0= -.23396063E+04  d E =-.195382E-02  mag=     4.0000
       N       E                     dE             d eps       ncg     rms          rms(c)
DAV:   1    -0.231905736843E+04    0.45711E-02   -0.10381E+00  4440   0.112E+00    0.267E-01
RMM:   2    -0.231906395281E+04   -0.65844E-02   -0.62598E-02  5187   0.180E-01    0.404E-01
RMM:   3    -0.231906345285E+04    0.49996E-03   -0.54411E-03  4886   0.619E-02    0.226E-01
RMM:   4    -0.231906308112E+04    0.37173E-03   -0.65665E-04  4761   0.159E-02    0.677E-02
RMM:   5    -0.231906298283E+04    0.98294E-04   -0.24674E-04  4885   0.136E-02    0.368E-02
RMM:   6    -0.231906296880E+04    0.14031E-04   -0.81893E-05  4124   0.891E-03    0.106E-02
RMM:   7    -0.231906296668E+04    0.21167E-05   -0.12197E-05  2852   0.457E-03
  93 F= -.23396078E+04 E0= -.23396078E+04  d E =-.147204E-02  mag=     4.0000
       N       E                     dE             d eps       ncg     rms          rms(c)
DAV:   1    -0.231906212433E+04    0.84446E-03   -0.12517E-01  4664   0.388E-01    0.924E-02
RMM:   2    -0.231906291177E+04   -0.78743E-03   -0.75821E-03  5348   0.640E-02    0.135E-01
RMM:   3    -0.231906286616E+04    0.45609E-04   -0.67590E-04  4259   0.251E-02    0.814E-02
RMM:   4    -0.231906281767E+04    0.48481E-04   -0.81268E-05  2933   0.636E-03    0.237E-02
RMM:   5    -0.231906280360E+04    0.14077E-04   -0.32721E-05  3091   0.554E-03    0.153E-02
RMM:   6    -0.231906280085E+04    0.27503E-05   -0.12443E-05  2844   0.501E-03
  94 F= -.23396077E+04 E0= -.23396077E+04  d E =-.145976E-02  mag=     4.0000
       N       E                     dE             d eps       ncg     rms          rms(c)
DAV:   1    -0.231905883813E+04    0.39655E-02   -0.87355E-01  4452   0.103E+00    0.238E-01
RMM:   2    -0.231906456182E+04   -0.57237E-02   -0.52834E-02  5169   0.165E-01    0.400E-01
[...]
RMM:   4    -0.231910426252E+04    0.29547E-04   -0.34045E-05  2838   0.492E-03    0.158E-02
RMM:   5    -0.231910425663E+04    0.58900E-05   -0.16206E-05  2846   0.391E-03
 267 F= -.23396801E+04 E0= -.23396801E+04  d E =-.538828E-03  mag=     4.0000
       N       E                     dE             d eps       ncg     rms          rms(c)
DAV:   1    -0.231910264667E+04    0.16159E-02   -0.50822E-01  4440   0.795E-01    0.173E-01
RMM:   2    -0.231910493519E+04   -0.22885E-02   -0.23659E-02  5144   0.124E-01    0.159E-01
RMM:   3    -0.231910503921E+04   -0.10402E-03   -0.20906E-03  4725   0.489E-02    0.196E-01
RMM:   4    -0.231910478847E+04    0.25074E-03   -0.31237E-04  4620   0.115E-02    0.455E-02
RMM:   5    -0.231910474536E+04    0.43117E-04   -0.11985E-04  4086   0.101E-02    0.175E-02
RMM:   6    -0.231910474204E+04    0.33114E-05   -0.31122E-05  3039   0.687E-03
 268 F= -.23396807E+04 E0= -.23396807E+04  d E =-.583130E-03  mag=     4.0000
       N       E                     dE             d eps       ncg     rms          rms(c)
DAV:   1    -0.231910463321E+04    0.11215E-03   -0.16904E-02  4936   0.146E-01    0.325E-02
RMM:   2    -0.231910471353E+04   -0.80322E-04   -0.84501E-04  5779   0.270E-02    0.259E-02
RMM:   3    -0.231910471879E+04   -0.52568E-05   -0.74619E-05  3057   0.841E-03
 269 F= -.23396806E+04 E0= -.23396806E+04  d E =-.577835E-03  mag=     4.0000
       N       E                     dE             d eps       ncg     rms          rms(c)
DAV:   1    -0.231910365415E+04    0.10594E-02   -0.34357E-01  4452   0.655E-01    0.149E-01
RMM:   2    -0.231910520632E+04   -0.15522E-02   -0.16309E-02  5155   0.104E-01    0.128E-01
RMM:   3    -0.231910528000E+04   -0.73674E-04   -0.14152E-03  4721   0.378E-02    0.169E-01
RMM:   4    -0.231910509704E+04    0.18296E-03   -0.21246E-04  4320   0.985E-03    0.405E-02
RMM:   5    -0.231910506080E+04    0.36238E-04   -0.95840E-05  4034   0.921E-03    0.157E-02
RMM:   6    -0.231910505763E+04    0.31767E-05   -0.23820E-05  2889   0.635E-03
 270 F= -.23396811E+04 E0= -.23396811E+04  d E =-.443484E-03  mag=     4.0000
       N       E                     dE             d eps       ncg     rms          rms(c)
DAV:   1    -0.231910501257E+04    0.48230E-04   -0.36624E-03  5344   0.684E-02    0.167E-02
RMM:   2    -0.231910503002E+04   -0.17442E-04   -0.19223E-04  4722   0.139E-02    0.127E-02
RMM:   3    -0.231910503209E+04   -0.20707E-05   -0.20473E-05  2821   0.565E-03
 271 F= -.23396811E+04 E0= -.23396811E+04  d E =-.428954E-03  mag=     4.0000
       N       E                     dE             d eps       ncg     rms          rms(c)
DAV:   1    -0.231910504028E+04   -0.10263E-04   -0.27270E-03  4570   0.585E-02    0.137E-02
RMM:   2    -0.231910505277E+04   -0.12494E-04   -0.12604E-04  4019   0.110E-02    0.136E-02
RMM:   3    -0.231910505424E+04   -0.14706E-05   -0.15418E-05  2676   0.500E-03
 272 F= -.23396811E+04 E0= -.23396811E+04  d E =-.441811E-03  mag=     4.0000
       N       E                     dE             d eps       ncg     rms          rms(c)
DAV:   1    -0.231910461389E+04    0.43888E-03   -0.20130E-01  4452   0.501E-01    0.118E-01
RMM:   2    -0.231910546824E+04   -0.85434E-03   -0.91554E-03  5140   0.793E-02    0.874E-02
RMM:   3    -0.231910553686E+04   -0.68628E-04   -0.81799E-04  4546   0.309E-02    0.139E-01
RMM:   4    -0.231910541312E+04    0.12375E-03   -0.12902E-04  3153   0.778E-03    0.296E-02
RMM:   5    -0.231910539228E+04    0.20834E-04   -0.61186E-05  3749   0.722E-03    0.113E-02
RMM:   6    -0.231910539016E+04    0.21202E-05   -0.13207E-05  2843   0.560E-03
 273 F= -.23396815E+04 E0= -.23396815E+04  d E =-.360919E-03  mag=     4.0000
       N       E                     dE             d eps       ncg     rms          rms(c)
DAV:   1    -0.231910536301E+04    0.29275E-04   -0.35803E-03  5248   0.675E-02    0.164E-02
RMM:   2    -0.231910537859E+04   -0.15586E-04   -0.17683E-04  4681   0.132E-02    0.753E-03
RMM:   3    -0.231910537923E+04   -0.64015E-06   -0.16944E-05  2817   0.561E-03
 274 F= -.23396814E+04 E0= -.23396814E+04  d E =-.353390E-03  mag=     4.0000
       N       E                     dE             d eps       ncg     rms          rms(c)
DAV:   1    -0.231910501678E+04    0.36181E-03   -0.19462E-01  4452   0.492E-01    0.107E-01
RMM:   2    -0.231910581744E+04   -0.80066E-03   -0.86553E-03  5155   0.770E-02    0.652E-02
RMM:   3    -0.231910585192E+04   -0.34481E-04   -0.69493E-04  4482   0.285E-02    0.104E-01
RMM:   4    -0.231910578737E+04    0.64556E-04   -0.97446E-05  2990   0.699E-03    0.333E-02
RMM:   5    -0.231910576647E+04    0.20897E-04   -0.55091E-05  3476   0.695E-03    0.123E-02
RMM:   6    -0.231910576460E+04    0.18700E-05   -0.13744E-05  2854   0.561E-03
 275 F= -.23396818E+04 E0= -.23396818E+04  d E =-.338223E-03  mag=     4.0000
       N       E                     dE             d eps       ncg     rms          rms(c)
DAV:   1    -0.231910571863E+04    0.47839E-04   -0.11429E-02  4800   0.120E-01    0.267E-02
RMM:   2    -0.231910576800E+04   -0.49370E-04   -0.53450E-04  5430   0.210E-02    0.176E-02
RMM:   3    -0.231910577167E+04   -0.36714E-05   -0.47970E-05  2868   0.847E-03
 276 F= -.23396818E+04 E0= -.23396818E+04  d E =-.333767E-03  mag=     4.0000
       N       E                     dE             d eps       ncg     rms          rms(c)
DAV:   1    -0.231910546819E+04    0.29981E-03   -0.17773E-01  4452   0.470E-01    0.106E-01
RMM:   2    -0.231910617502E+04   -0.70682E-03   -0.76489E-03  5169   0.735E-02    0.656E-02
RMM:   3    -0.231910620800E+04   -0.32988E-04   -0.62280E-04  4503   0.273E-02    0.107E-01
RMM:   4    -0.231910613950E+04    0.68504E-04   -0.93514E-05  2968   0.688E-03    0.316E-02
RMM:   5    -0.231910612159E+04    0.17911E-04   -0.48103E-05  3227   0.672E-03    0.135E-02
RMM:   6    -0.231910612044E+04    0.11477E-05   -0.13869E-05  2852   0.557E-03
 277 F= -.23396821E+04 E0= -.23396821E+04  d E =-.333048E-03  mag=     4.0000
       N       E                     dE             d eps       ncg     rms          rms(c)
DAV:   1    -0.231910600799E+04    0.11360E-03   -0.28975E-02  4592   0.190E-01    0.435E-02
RMM:   2    -0.231910612721E+04   -0.11923E-03   -0.12767E-03  5631   0.314E-02    0.284E-02
RMM:   3    -0.231910613683E+04   -0.96185E-05   -0.11612E-04  3367   0.125E-02    0.495E-02
RMM:   4    -0.231910612141E+04    0.15419E-04   -0.17368E-05  2833   0.381E-03    0.115E-02
RMM:   5    -0.231910611834E+04    0.30693E-05   -0.90124E-06  2839   0.297E-03
 278 F= -.23396821E+04 E0= -.23396821E+04  d E =-.324573E-03  mag=     4.0000
       N       E                     dE             d eps       ncg     rms          rms(c)
DAV:   1    -0.231910569119E+04    0.43022E-03   -0.19264E-01  4452   0.489E-01    0.106E-01
RMM:   2    -0.231910648105E+04   -0.78986E-03   -0.84090E-03  5104   0.763E-02    0.733E-02
RMM:   3    -0.231910653276E+04   -0.51702E-04   -0.71496E-04  4479   0.302E-02    0.119E-01
RMM:   4    -0.231910644494E+04    0.87818E-04   -0.10326E-04  3030   0.710E-03    0.289E-02
RMM:   5    -0.231910642837E+04    0.16572E-04   -0.49580E-05  3144   0.668E-03    0.107E-02
RMM:   6    -0.231910642756E+04    0.80462E-06   -0.13261E-05  2847   0.553E-03
 279 F= -.23396824E+04 E0= -.23396824E+04  d E =-.318308E-03  mag=     4.0000
       N       E                     dE             d eps       ncg     rms          rms(c)
DAV:   1    -0.231910626958E+04    0.15879E-03   -0.36810E-02  4528   0.214E-01    0.469E-02
RMM:   2    -0.231910642357E+04   -0.15399E-03   -0.16470E-03  5669   0.354E-02    0.289E-02
RMM:   3    -0.231910643353E+04   -0.99579E-05   -0.14447E-04  3511   0.135E-02    0.493E-02
RMM:   4    -0.231910641867E+04    0.14862E-04   -0.19364E-05  2833   0.402E-03    0.133E-02
RMM:   5    -0.231910641505E+04    0.36225E-05   -0.10656E-05  2839   0.321E-03
 280 F= -.23396824E+04 E0= -.23396824E+04  d E =-.309818E-03  mag=     4.0000
       N       E                     dE             d eps       ncg     rms          rms(c)
DAV:   1    -0.231910606860E+04    0.35007E-03   -0.17983E-01  4452   0.472E-01    0.103E-01
RMM:   2    -0.231910681954E+04   -0.75095E-03   -0.80256E-03  5196   0.743E-02    0.664E-02
RMM:   3    -0.231910687280E+04   -0.53257E-04   -0.70163E-04  4399   0.324E-02    0.110E-01
RMM:   4    -0.231910679941E+04    0.73395E-04   -0.96144E-05  2963   0.704E-03    0.287E-02
RMM:   5    -0.231910678428E+04    0.15131E-04   -0.46615E-05  3099   0.656E-03    0.108E-02
RMM:   6    -0.231910678353E+04    0.74506E-06   -0.13814E-05  2849   0.551E-03
 281 F= -.23396828E+04 E0= -.23396828E+04  d E =-.347623E-03  mag=     4.0000
       N       E                     dE             d eps       ncg     rms          rms(c)
DAV:   1    -0.231910654200E+04    0.24227E-03   -0.62168E-02  4464   0.278E-01    0.608E-02
RMM:   2    -0.231910680745E+04   -0.26545E-03   -0.28339E-03  5577   0.452E-02    0.375E-02
RMM:   3    -0.231910682524E+04   -0.17785E-04   -0.25005E-04  3896   0.181E-02    0.633E-02
RMM:   4    -0.231910680073E+04    0.24503E-04   -0.32288E-05  2839   0.472E-03    0.173E-02
RMM:   5    -0.231910679501E+04    0.57286E-05   -0.17381E-05  2850   0.394E-03
 282 F= -.23396828E+04 E0= -.23396828E+04  d E =-.346861E-03  mag=     4.0000
       N       E                     dE             d eps       ncg     rms          rms(c)
DAV:   1    -0.231910634017E+04    0.46057E-03   -0.20276E-01  4452   0.501E-01    0.109E-01
RMM:   2    -0.231910721334E+04   -0.87318E-03   -0.93018E-03  5290   0.793E-02    0.742E-02
RMM:   3    -0.231910727990E+04   -0.66557E-04   -0.82042E-04  4477   0.326E-02    0.120E-01
RMM:   4    -0.231910719116E+04    0.88742E-04   -0.11113E-04  2981   0.743E-03    0.303E-02
RMM:   5    -0.231910717337E+04    0.17789E-04   -0.53859E-05  3231   0.679E-03    0.117E-02
RMM:   6    -0.231910717186E+04    0.15119E-05   -0.15416E-05  2850   0.572E-03
 283 F= -.23396831E+04 E0= -.23396831E+04  d E =-.346388E-03  mag=     4.0000
       N       E                     dE             d eps       ncg     rms          rms(c)
DAV:   1    -0.231910696813E+04    0.20524E-03   -0.49632E-02  4528   0.248E-01    0.545E-02
RMM:   2    -0.231910718785E+04   -0.21972E-03   -0.23428E-03  5715   0.411E-02    0.351E-02
RMM:   3    -0.231910720305E+04   -0.15195E-04   -0.20925E-04  3684   0.154E-02    0.584E-02
RMM:   4    -0.231910718183E+04    0.21223E-04   -0.26926E-05  2837   0.443E-03    0.154E-02
RMM:   5    -0.231910717675E+04    0.50728E-05   -0.14428E-05  2848   0.358E-03
 284 F= -.23396831E+04 E0= -.23396831E+04  d E =-.336237E-03  mag=     4.0000
       N       E                     dE             d eps       ncg     rms          rms(c)
DAV:   1    -0.231910657166E+04    0.61016E-03   -0.22162E-01  4452   0.524E-01    0.112E-01
RMM:   2    -0.231910756650E+04   -0.99484E-03   -0.10510E-02  5238   0.830E-02    0.837E-02
RMM:   3    -0.231910763747E+04   -0.70973E-04   -0.94709E-04  4524   0.356E-02    0.125E-01
RMM:   4    -0.231910753927E+04    0.98207E-04   -0.12319E-04  3051   0.778E-03    0.316E-02
RMM:   5    -0.231910751927E+04    0.19992E-04   -0.59472E-05  3291   0.709E-03    0.124E-02
RMM:   6    -0.231910751732E+04    0.19575E-05   -0.16862E-05  2854   0.595E-03
 285 F= -.23396834E+04 E0= -.23396834E+04  d E =-.349851E-03  mag=     4.0000
       N       E                     dE             d eps       ncg     rms          rms(c)
DAV:   1    -0.231910732732E+04    0.19195E-03   -0.38981E-02  4608   0.220E-01    0.475E-02
RMM:   2    -0.231910750837E+04   -0.18105E-03   -0.19152E-03  5753   0.370E-02    0.343E-02
RMM:   3    -0.231910752032E+04   -0.11947E-04   -0.16997E-04  3492   0.135E-02    0.532E-02
RMM:   4    -0.231910750273E+04    0.17588E-04   -0.22322E-05  2836   0.420E-03    0.135E-02
RMM:   5    -0.231910749859E+04    0.41369E-05   -0.11829E-05  2841   0.329E-03
 286 F= -.23396834E+04 E0= -.23396834E+04  d E =-.335115E-03  mag=     4.0000
       N       E                     dE             d eps       ncg     rms          rms(c)
DAV:   1    -0.231910667169E+04    0.83104E-03   -0.26433E-01  4452   0.572E-01    0.128E-01
RMM:   2    -0.231910788811E+04   -0.12164E-02   -0.12799E-02  5183   0.907E-02    0.100E-01
RMM:   3    -0.231910797373E+04   -0.85618E-04   -0.11447E-03  4617   0.365E-02    0.147E-01
RMM:   4    -0.231910783722E+04    0.13651E-03   -0.16260E-04  3399   0.846E-03    0.337E-02
RMM:   5    -0.231910781314E+04    0.24082E-04   -0.71317E-05  3651   0.764E-03    0.132E-02
RMM:   6    -0.231910781062E+04    0.25177E-05   -0.19029E-05  2858   0.595E-03
 287 F= -.23396838E+04 E0= -.23396838E+04  d E =-.333429E-03  mag=     4.0000
       N       E                     dE             d eps       ncg     rms          rms(c)
DAV:   1    -0.231910774814E+04    0.64995E-04   -0.93429E-03  4928   0.108E-01    0.249E-02
RMM:   2    -0.231910779331E+04   -0.45169E-04   -0.48299E-04  5360   0.202E-02    0.166E-02
RMM:   3    -0.231910779747E+04   -0.41626E-05   -0.47145E-05  2854   0.772E-03
 288 F= -.23396838E+04 E0= -.23396838E+04  d E =-.324361E-03  mag=     4.0000
       N       E                     dE             d eps       ncg     rms          rms(c)
DAV:   1    -0.231910718484E+04    0.60847E-03   -0.20899E-01  4420   0.509E-01    0.117E-01
RMM:   2    -0.231910819485E+04   -0.10100E-02   -0.10592E-02  5274   0.821E-02    0.102E-01
RMM:   3    -0.231910824669E+04   -0.51833E-04   -0.92663E-04  4539   0.293E-02    0.132E-01
RMM:   4    -0.231910813577E+04    0.11092E-03   -0.13315E-04  3215   0.792E-03    0.321E-02
RMM:   5    -0.231910811382E+04    0.21945E-04   -0.63058E-05  3600   0.736E-03    0.127E-02
RMM:   6    -0.231910811183E+04    0.19927E-05   -0.16110E-05  2853   0.585E-03
 289 F= -.23396841E+04 E0= -.23396841E+04  d E =-.320951E-03  mag=     4.0000
       N       E                     dE             d eps       ncg     rms          rms(c)
DAV:   1    -0.231910808306E+04    0.30766E-04   -0.36993E-03  5256   0.683E-02    0.166E-02
RMM:   2    -0.231910810172E+04   -0.18662E-04   -0.20069E-04  4731   0.135E-02    0.127E-02
RMM:   3    -0.231910810389E+04   -0.21666E-05   -0.21093E-05  2822   0.561E-03
 290 F= -.23396841E+04 E0= -.23396841E+04  d E =-.313903E-03  mag=     4.0000
       N       E                     dE             d eps       ncg     rms          rms(c)
DAV:   1    -0.231910760363E+04    0.49809E-03   -0.16957E-01  4452   0.458E-01    0.111E-01
RMM:   2    -0.231910844390E+04   -0.84027E-03   -0.87338E-03  5277   0.742E-02    0.104E-01
RMM:   3    -0.231910848392E+04   -0.40018E-04   -0.79144E-04  4390   0.271E-02    0.125E-01
RMM:   4    -0.231910838098E+04    0.10295E-03   -0.11468E-04  3071   0.751E-03    0.283E-02
RMM:   5    -0.231910836282E+04    0.18158E-04   -0.52045E-05  3269   0.678E-03    0.111E-02
RMM:   6    -0.231910836115E+04    0.16669E-05   -0.13852E-05  2840   0.558E-03
 291 F= -.23396844E+04 E0= -.23396844E+04  d E =-.282992E-03  mag=     4.0000
       N       E                     dE             d eps       ncg     rms          rms(c)
DAV:   1    -0.231910828727E+04    0.75543E-04   -0.86146E-03  4944   0.104E-01    0.257E-02
RMM:   2    -0.231910833136E+04   -0.44084E-04   -0.46554E-04  5292   0.195E-02    0.217E-02
RMM:   3    -0.231910833531E+04   -0.39466E-05   -0.46070E-05  2843   0.775E-03
 292 F= -.23396843E+04 E0= -.23396843E+04  d E =-.263022E-03  mag=     4.0000
       N       E                     dE             d eps       ncg     rms          rms(c)
DAV:   1    -0.231910833056E+04    0.80113E-06   -0.52936E-03  4506   0.810E-02    0.197E-02
RMM:   2    -0.231910835744E+04   -0.26879E-04   -0.27204E-04  4918   0.148E-02    0.197E-02
RMM:   3    -0.231910835968E+04   -0.22438E-05   -0.28125E-05  2792   0.563E-03
 293 F= -.23396844E+04 E0= -.23396844E+04  d E =-.282877E-03  mag=     4.0000
       N       E                     dE             d eps       ncg     rms          rms(c)
DAV:   1    -0.231910798400E+04    0.37344E-03   -0.13371E-01  4420   0.408E-01    0.102E-01
RMM:   2    -0.231910860521E+04   -0.62121E-03   -0.65073E-03  5302   0.660E-02    0.873E-02
RMM:   3    -0.231910864948E+04   -0.44273E-04   -0.59676E-04  4242   0.236E-02    0.121E-01
RMM:   4    -0.231910855310E+04    0.96383E-04   -0.91001E-05  2949   0.696E-03    0.240E-02
RMM:   5    -0.231910853959E+04    0.13516E-04   -0.43056E-05  3182   0.617E-03    0.973E-03
RMM:   6    -0.231910853850E+04    0.10822E-05   -0.10550E-05  2840   0.519E-03
 294 F= -.23396846E+04 E0= -.23396846E+04  d E =-.249285E-03  mag=     4.0000
       N       E                     dE             d eps       ncg     rms          rms(c)
DAV:   1    -0.231910851449E+04    0.25095E-04   -0.17600E-03  5296   0.475E-02    0.123E-02
RMM:   2    -0.231910852247E+04   -0.79749E-05   -0.89642E-05  3557   0.969E-03
 295 F= -.23396846E+04 E0= -.23396846E+04  d E =-.241522E-03  mag=     4.0000
       N       E                     dE             d eps       ncg     rms          rms(c)
DAV:   1    -0.231910852998E+04   -0.15486E-04   -0.82357E-04  4418   0.325E-02    0.130E-02
RMM:   2    -0.231910854181E+04   -0.11830E-04   -0.50594E-05  2899   0.705E-03    0.393E-02
RMM:   3    -0.231910853331E+04    0.85006E-05   -0.11520E-05  2498   0.434E-03
 296 F= -.23396846E+04 E0= -.23396846E+04  d E =-.246846E-03  mag=     4.0000
       N       E                     dE             d eps       ncg     rms          rms(c)
DAV:   1    -0.231910830131E+04    0.24050E-03   -0.88910E-02  4432   0.333E-01    0.846E-02
RMM:   2    -0.231910870316E+04   -0.40184E-03   -0.42452E-03  5089   0.535E-02    0.718E-02
RMM:   3    -0.231910873100E+04   -0.27846E-04   -0.39924E-04  4065   0.226E-02    0.995E-02
RMM:   4    -0.231910866661E+04    0.64387E-04   -0.67126E-05  2857   0.612E-03    0.204E-02
RMM:   5    -0.231910865648E+04    0.10130E-04   -0.29000E-05  2952   0.534E-03    0.763E-03
RMM:   6    -0.231910865580E+04    0.68985E-06   -0.81526E-06  2830   0.464E-03
 297 F= -.23396848E+04 E0= -.23396848E+04  d E =-.199976E-03  mag=     4.0000
       N       E                     dE             d eps       ncg     rms          rms(c)
DAV:   1    -0.231910863708E+04    0.19404E-04   -0.12049E-03  5240   0.394E-02    0.104E-02
RMM:   2    -0.231910864245E+04   -0.53649E-05   -0.60424E-05  3317   0.815E-03
 298 F= -.23396848E+04 E0= -.23396848E+04  d E =-.195896E-03  mag=     4.0000
       N       E                     dE             d eps       ncg     rms          rms(c)
DAV:   1    -0.231910864971E+04   -0.12626E-04   -0.48269E-04  4360   0.250E-02    0.123E-02
RMM:   2    -0.231910866100E+04   -0.11292E-04   -0.36052E-05  2744   0.575E-03    0.414E-02
RMM:   3    -0.231910865133E+04    0.96672E-05   -0.10303E-05  2431   0.382E-03
 299 F= -.23396848E+04 E0= -.23396848E+04  d E =-.199098E-03  mag=     4.0000
       N       E                     dE             d eps       ncg     rms          rms(c)
DAV:   1    -0.231910849301E+04    0.16799E-03   -0.66560E-02  4420   0.288E-01    0.700E-02
RMM:   2    -0.231910880359E+04   -0.31058E-03   -0.32659E-03  5121   0.462E-02    0.611E-02
RMM:   3    -0.231910882322E+04   -0.19637E-04   -0.30547E-04  3918   0.196E-02    0.812E-02
RMM:   4    -0.231910878063E+04    0.42593E-04   -0.47942E-05  2840   0.524E-03    0.177E-02
RMM:   5    -0.231910877356E+04    0.70683E-05   -0.20855E-05  2858   0.447E-03
 300 F= -.23396850E+04 E0= -.23396850E+04  d E =-.163591E-03  mag=     4.0000
       N       E                     dE             d eps       ncg     rms          rms(c)
DAV:   1    -0.231910874908E+04    0.31548E-04   -0.27413E-03  5160   0.588E-02    0.151E-02
RMM:   2    -0.231910876185E+04   -0.12764E-04   -0.14134E-04  4206   0.122E-02    0.118E-02
RMM:   3    -0.231910876391E+04   -0.20605E-05   -0.18750E-05  2797   0.569E-03
 301 F= -.23396850E+04 E0= -.23396850E+04  d E =-.162554E-03  mag=     4.0000
