       N       E                     dE             d eps       ncg     rms          rms(c)
DAV:   1     0.131464996220E+05    0.13146E+05   -0.84445E+05  4536   0.144E+03
DAV:   2    -0.102034884495E+04   -0.14167E+05   -0.13535E+05  4992   0.331E+02
DAV:   3    -0.248779837035E+04   -0.14674E+04   -0.14491E+04  5536   0.115E+02
DAV:   4    -0.253489893129E+04   -0.47101E+02   -0.46862E+02  6776   0.300E+01
DAV:   5    -0.253568932012E+04   -0.79039E+00   -0.78874E+00  6320   0.343E+00    0.170E+02
RMM:   6    -0.149792767090E+04    0.10378E+04   -0.19735E+03  4478   0.384E+01    0.733E+01
RMM:   7    -0.169277519003E+04   -0.19485E+03   -0.30243E+02  5208   0.149E+01    0.577E+01
RMM:   8    -0.171570011299E+04   -0.22925E+02   -0.90167E+01  5342   0.838E+00    0.419E+01
RMM:   9    -0.178984115652E+04   -0.74141E+02   -0.53024E+01  5131   0.725E+00    0.328E+01
RMM:  10    -0.192053447670E+04   -0.13069E+03   -0.62763E+01  5306   0.778E+00    0.279E+01
RMM:  11    -0.200572099547E+04   -0.85187E+02   -0.37277E+01  5401   0.528E+00    0.175E+01
RMM:  12    -0.208692076457E+04   -0.81200E+02   -0.34677E+01  5136   0.465E+00    0.170E+01
RMM:  13    -0.215801334289E+04   -0.71093E+02   -0.35040E+01  5101   0.462E+00    0.128E+01
RMM:  14    -0.225679486674E+04   -0.98782E+02   -0.76228E+01  4485   0.634E+00    0.860E+00
RMM:  15    -0.230743658307E+04   -0.50642E+02   -0.45402E+01  4635   0.506E+00    0.483E+00
RMM:  16    -0.232492037212E+04   -0.17484E+02   -0.21586E+01  4933   0.335E+00    0.374E+00
RMM:  17    -0.232683841576E+04   -0.19180E+01   -0.29494E+00  5707   0.126E+00    0.220E+00
RMM:  18    -0.232913036293E+04   -0.22919E+01   -0.17603E+00  4591   0.783E-01    0.135E+00
RMM:  19    -0.232973397465E+04   -0.60361E+00   -0.79442E-01  4663   0.590E-01    0.922E-01
RMM:  20    -0.233005903578E+04   -0.32506E+00   -0.26678E-01  4802   0.312E-01    0.616E-01
RMM:  21    -0.233015908503E+04   -0.10005E+00   -0.94147E-02  4836   0.179E-01    0.284E-01
RMM:  22    -0.233018994179E+04   -0.30857E-01   -0.18962E-02  5043   0.922E-02    0.216E-01
RMM:  23    -0.233020846584E+04   -0.18524E-01   -0.64050E-03  4697   0.583E-02    0.111E-01
RMM:  24    -0.233022410778E+04   -0.15642E-01   -0.41330E-03  4495   0.455E-02    0.121E-01
RMM:  25    -0.233023239873E+04   -0.82910E-02   -0.24104E-03  4648   0.377E-02    0.594E-02
RMM:  26    -0.233023734195E+04   -0.49432E-02   -0.12385E-03  4528   0.277E-02    0.537E-02
RMM:  27    -0.233024091810E+04   -0.35761E-02   -0.78665E-04  4256   0.201E-02    0.372E-02
RMM:  28    -0.233024323174E+04   -0.23136E-02   -0.61019E-04  4212   0.171E-02    0.195E-02
RMM:  29    -0.233024406871E+04   -0.83697E-03   -0.26796E-04  4238   0.124E-02    0.148E-02
RMM:  30    -0.233024426587E+04   -0.19717E-03   -0.51268E-05  3490   0.615E-03    0.105E-02
RMM:  31    -0.233024445431E+04   -0.18844E-03   -0.29595E-05  3178   0.455E-03    0.508E-03
RMM:  32    -0.233024457203E+04   -0.11772E-03   -0.21228E-05  3054   0.409E-03    0.408E-03
RMM:  33    -0.233024460742E+04   -0.35393E-04   -0.80643E-06  2861   0.323E-03    0.212E-03
RMM:  34    -0.233024462968E+04   -0.22261E-04   -0.56257E-06  2585   0.239E-03    0.122E-03
RMM:  35    -0.233024464226E+04   -0.12581E-04   -0.39155E-06  2504   0.213E-03    0.106E-03
RMM:  36    -0.233024464425E+04   -0.19841E-05   -0.17515E-06  2354   0.167E-03
   1 F= -.23517600E+04 E0= -.23517582E+04  d E =-.235176E+04  mag=     5.9905
       N       E                     dE             d eps       ncg     rms          rms(c)
DAV:   1    -0.232950907852E+04    0.73556E+00   -0.61634E+01  4808   0.591E+00    0.239E+00
RMM:   2    -0.233065053367E+04   -0.11415E+01   -0.12391E+01  6723   0.161E+00    0.167E+00
RMM:   3    -0.233072819505E+04   -0.77661E-01   -0.13315E+00  6108   0.577E-01    0.138E+00
RMM:   4    -0.233072351140E+04    0.46836E-02   -0.14070E-01  6273   0.140E-01    0.116E+00
RMM:   5    -0.233071152911E+04    0.11982E-01   -0.29534E-02  6271   0.740E-02    0.693E-01
RMM:   6    -0.233070723449E+04    0.42946E-02   -0.24430E-02  5894   0.712E-02    0.522E-01
RMM:   7    -0.233070486826E+04    0.23662E-02   -0.72654E-03  5494   0.410E-02    0.226E-01
RMM:   8    -0.233070484818E+04    0.20082E-04   -0.18070E-03  5085   0.194E-02    0.187E-01
RMM:   9    -0.233070460535E+04    0.24283E-03   -0.56016E-04  3813   0.137E-02    0.107E-01
RMM:  10    -0.233070461077E+04   -0.54207E-05   -0.48583E-04  4033   0.116E-02    0.284E-02
RMM:  11    -0.233070467486E+04   -0.64094E-04   -0.14485E-04  3413   0.730E-03    0.149E-02
RMM:  12    -0.233070470555E+04   -0.30686E-04   -0.30670E-05  3025   0.473E-03    0.823E-03
RMM:  13    -0.233070472769E+04   -0.22141E-04   -0.13686E-05  2926   0.412E-03    0.559E-03
RMM:  14    -0.233070474094E+04   -0.13252E-04   -0.95482E-06  2870   0.353E-03    0.386E-03
RMM:  15    -0.233070474955E+04   -0.86030E-05   -0.63144E-06  2842   0.306E-03
   2 F= -.23522258E+04 E0= -.23522247E+04  d E =-.465846E+00  mag=     5.9751
       N       E                     dE             d eps       ncg     rms          rms(c)
DAV:   1    -0.233070014343E+04    0.45975E-02   -0.48963E-01  5000   0.517E-01    0.192E-01
RMM:   2    -0.233070859339E+04   -0.84500E-02   -0.91138E-02  6715   0.140E-01    0.143E-01
RMM:   3    -0.233070919567E+04   -0.60228E-03   -0.87709E-03  5092   0.471E-02    0.126E-01
RMM:   4    -0.233070909249E+04    0.10318E-03   -0.92976E-04  3435   0.118E-02    0.725E-02
RMM:   5    -0.233070902618E+04    0.66312E-04   -0.22940E-04  3812   0.767E-03    0.578E-02
RMM:   6    -0.233070901215E+04    0.14022E-04   -0.13730E-04  3190   0.681E-03    0.441E-02
RMM:   7    -0.233070899272E+04    0.19431E-04   -0.38684E-05  2940   0.469E-03    0.188E-02
RMM:   8    -0.233070899260E+04    0.12334E-06   -0.12269E-05  2788   0.330E-03
   3 F= -.23522295E+04 E0= -.23522284E+04  d E =-.469527E+00  mag=     5.9765
       N       E                     dE             d eps       ncg     rms          rms(c)
DAV:   1    -0.233008172470E+04    0.62727E+00   -0.31849E+01  4608   0.434E+00    0.188E+00
RMM:   2    -0.233098192261E+04   -0.90020E+00   -0.96118E+00  6750   0.135E+00    0.117E+00
RMM:   3    -0.233107452325E+04   -0.92601E-01   -0.11546E+00  6082   0.547E-01    0.111E+00
RMM:   4    -0.233107177993E+04    0.27433E-02   -0.10130E-01  6251   0.108E-01    0.694E-01
RMM:   5    -0.233106677651E+04    0.50034E-02   -0.91445E-03  5929   0.385E-02    0.512E-01
RMM:   6    -0.233106358474E+04    0.31918E-02   -0.11504E-02  6069   0.471E-02    0.329E-01
RMM:   7    -0.233106306955E+04    0.51519E-03   -0.37325E-03  5702   0.267E-02    0.265E-01
RMM:   8    -0.233106248782E+04    0.58172E-03   -0.11557E-03  5358   0.165E-02    0.104E-01
RMM:   9    -0.233106233756E+04    0.15027E-03   -0.33415E-04  3544   0.113E-02    0.593E-02
RMM:  10    -0.233106231701E+04    0.20549E-04   -0.14618E-04  3177   0.648E-03    0.548E-02
RMM:  11    -0.233106228910E+04    0.27910E-04   -0.10671E-04  3029   0.622E-03    0.139E-02
RMM:  12    -0.233106229073E+04   -0.16276E-05   -0.13013E-05  2883   0.331E-03
   4 F= -.23525878E+04 E0= -.23525876E+04  d E =-.358247E+00  mag=     5.9932
       N       E                     dE             d eps       ncg     rms          rms(c)
DAV:   1    -0.233078464613E+04    0.27764E+00   -0.10991E+01  4664   0.252E+00    0.108E+00
RMM:   2    -0.233108617976E+04   -0.30153E+00   -0.32143E+00  6751   0.759E-01    0.701E-01
RMM:   3    -0.233111774433E+04   -0.31565E-01   -0.37556E-01  6188   0.312E-01    0.711E-01
RMM:   4    -0.233111508595E+04    0.26584E-02   -0.33619E-02  6011   0.628E-02    0.375E-01
RMM:   5    -0.233111342789E+04    0.16581E-02   -0.28481E-03  5409   0.224E-02    0.274E-01
RMM:   6    -0.233111311761E+04    0.31028E-03   -0.35438E-03  5664   0.259E-02    0.285E-01
RMM:   7    -0.233111221194E+04    0.90568E-03   -0.16385E-03  5546   0.179E-02    0.979E-02
RMM:   8    -0.233111213747E+04    0.74463E-04   -0.29015E-04  4077   0.919E-03    0.480E-02
RMM:   9    -0.233111212287E+04    0.14599E-04   -0.94598E-05  2981   0.640E-03    0.492E-02
RMM:  10    -0.233111209241E+04    0.30462E-04   -0.70533E-05  3068   0.470E-03    0.146E-02
RMM:  11    -0.233111209146E+04    0.95488E-06   -0.20872E-05  2931   0.370E-03
   5 F= -.23526408E+04 E0= -.23526407E+04  d E =-.411248E+00  mag=     5.9977
       N       E                     dE             d eps       ncg     rms          rms(c)
DAV:   1    -0.233100193033E+04    0.11016E+00   -0.11934E+01  4560   0.278E+00    0.106E+00
RMM:   2    -0.233127012956E+04   -0.26820E+00   -0.28891E+00  6684   0.714E-01    0.714E-01
RMM:   3    -0.233129665169E+04   -0.26522E-01   -0.34407E-01  6144   0.306E-01    0.528E-01
RMM:   4    -0.233129623435E+04    0.41733E-03   -0.31757E-02  6184   0.587E-02    0.406E-01
RMM:   5    -0.233129450500E+04    0.17294E-02   -0.27571E-03  5290   0.231E-02    0.252E-01
RMM:   6    -0.233129400915E+04    0.49585E-03   -0.29314E-03  5866   0.252E-02    0.228E-01
RMM:   7    -0.233129347863E+04    0.53052E-03   -0.14988E-03  5481   0.186E-02    0.808E-02
RMM:   8    -0.233129345768E+04    0.20952E-04   -0.23170E-04  3430   0.953E-03    0.572E-02
RMM:   9    -0.233129345714E+04    0.53865E-06   -0.96801E-05  2980   0.624E-03
   6 F= -.23528239E+04 E0= -.23528238E+04  d E =-.183166E+00  mag=     5.9973
       N       E                     dE             d eps       ncg     rms          rms(c)
DAV:   1    -0.232877031976E+04    0.25231E+01   -0.10672E+02  4512   0.839E+00    0.347E+00
RMM:   2    -0.233164023056E+04   -0.28699E+01   -0.28920E+01  6732   0.229E+00    0.620E+00
RMM:   3    -0.233161617286E+04    0.24058E-01   -0.32004E+00  6237   0.900E-01    0.338E+00
RMM:   4    -0.233164820562E+04   -0.32033E-01   -0.32039E-01  5629   0.193E-01    0.288E+00
RMM:   5    -0.233164567252E+04    0.25331E-02   -0.87756E-02  6336   0.125E-01    0.277E+00
RMM:   6    -0.233161042172E+04    0.35251E-01   -0.13430E-01  5543   0.154E-01    0.207E+00
RMM:   7    -0.233160252065E+04    0.79011E-02   -0.60221E-02  6041   0.108E-01    0.176E+00
RMM:   8    -0.233160201286E+04    0.50779E-03   -0.22739E-02  5281   0.696E-02    0.103E+00
RMM:   9    -0.233160228681E+04   -0.27395E-03   -0.14043E-02  5385   0.558E-02    0.837E-01
RMM:  10    -0.233160481333E+04   -0.25265E-02   -0.42657E-03  5246   0.338E-02    0.573E-01
RMM:  11    -0.233162053831E+04   -0.15725E-01   -0.57426E-03  4704   0.402E-02    0.327E-01
RMM:  12    -0.233163324860E+04   -0.12710E-01   -0.19786E-03  4483   0.319E-02    0.227E-01
RMM:  13    -0.233164738890E+04   -0.14140E-01   -0.17521E-03  4422   0.265E-02    0.166E-01
RMM:  14    -0.233166166301E+04   -0.14274E-01   -0.24094E-03  4458   0.324E-02    0.850E-02
RMM:  15    -0.233166886256E+04   -0.71995E-02   -0.16070E-03  4477   0.268E-02    0.483E-02
RMM:  16    -0.233167236939E+04   -0.35068E-02   -0.94771E-04  4307   0.190E-02    0.260E-02
RMM:  17    -0.233167329937E+04   -0.92998E-03   -0.26790E-04  4136   0.121E-02    0.160E-02
RMM:  18    -0.233167362359E+04   -0.32422E-03   -0.75370E-05  3631   0.624E-03    0.854E-03
RMM:  19    -0.233167371152E+04   -0.87933E-04   -0.14557E-05  3006   0.434E-03    0.446E-03
RMM:  20    -0.233167376831E+04   -0.56789E-04   -0.11262E-05  2931   0.301E-03    0.271E-03
RMM:  21    -0.233167377787E+04   -0.95621E-05   -0.40382E-06  2748   0.268E-03
   7 F= -.23532108E+04 E0= -.23532076E+04  d E =-.570000E+00  mag=     3.9162
       N       E                     dE             d eps       ncg     rms          rms(c)
DAV:   1    -0.231893431756E+04    0.12739E+02   -0.43358E+02  4488   0.170E+01    0.769E+00
RMM:   2    -0.233685987919E+04   -0.17926E+02   -0.16343E+02  6772   0.567E+00    0.168E+01
RMM:   3    -0.233137239060E+04    0.54875E+01   -0.12268E+01  5914   0.192E+00    0.740E+00
RMM:   4    -0.233094172582E+04    0.43066E+00   -0.20518E+00  6480   0.538E-01    0.433E+00
RMM:   5    -0.233085786613E+04    0.83860E-01   -0.31033E-01  5833   0.252E-01    0.261E+00
RMM:   6    -0.233084288288E+04    0.14983E-01   -0.10638E-01  6288   0.151E-01    0.239E+00
RMM:   7    -0.233078660764E+04    0.56275E-01   -0.12962E-01  5966   0.174E-01    0.108E+00
RMM:   8    -0.233077206529E+04    0.14542E-01   -0.52495E-02  5465   0.114E-01    0.572E-01
RMM:   9    -0.233077284837E+04   -0.78308E-03   -0.56869E-03  5309   0.571E-02    0.251E-01
RMM:  10    -0.233077306172E+04   -0.21335E-03   -0.19762E-03  4717   0.296E-02    0.152E-01
RMM:  11    -0.233077403235E+04   -0.97064E-03   -0.66766E-04  4565   0.188E-02    0.575E-02
RMM:  12    -0.233077472884E+04   -0.69648E-03   -0.32127E-04  4331   0.119E-02    0.242E-02
RMM:  13    -0.233077503656E+04   -0.30772E-03   -0.10054E-04  3831   0.870E-03    0.146E-02
RMM:  14    -0.233077522095E+04   -0.18439E-03   -0.49100E-05  3396   0.534E-03    0.958E-03
RMM:  15    -0.233077533704E+04   -0.11609E-03   -0.24062E-05  3019   0.489E-03    0.759E-03
RMM:  16    -0.233077539118E+04   -0.54145E-04   -0.15967E-05  2953   0.382E-03    0.410E-03
RMM:  17    -0.233077540712E+04   -0.15938E-04   -0.60705E-06  2853   0.336E-03    0.227E-03
RMM:  18    -0.233077541537E+04   -0.82465E-05   -0.40637E-06  2712   0.223E-03
   8 F= -.23523291E+04 E0= -.23523291E+04  d E =0.311682E+00  mag=     3.9978
       N       E                     dE             d eps       ncg     rms          rms(c)
DAV:   1    -0.232273406187E+04    0.80413E+01   -0.32656E+02  4496   0.150E+01    0.615E+00
RMM:   2    -0.233414489889E+04   -0.11411E+02   -0.10675E+02  6752   0.459E+00    0.122E+01
RMM:   3    -0.233185872599E+04    0.22862E+01   -0.94790E+00  5920   0.154E+00    0.454E+00
RMM:   4    -0.233183905032E+04    0.19676E-01   -0.10597E+00  5640   0.335E-01    0.422E+00
RMM:   5    -0.233180155789E+04    0.37492E-01   -0.13434E-01  6221   0.166E-01    0.339E+00
RMM:   6    -0.233170899851E+04    0.92559E-01   -0.21262E-01  5185   0.200E-01    0.234E+00
RMM:   7    -0.233171931337E+04   -0.10315E-01   -0.10588E-01  5813   0.163E-01    0.246E+00
RMM:   8    -0.233167110252E+04    0.48211E-01   -0.58367E-02  5612   0.111E-01    0.109E+00
RMM:   9    -0.233167122477E+04   -0.12225E-03   -0.20939E-02  4935   0.782E-02    0.547E-01
RMM:  10    -0.233169892005E+04   -0.27695E-01   -0.13833E-02  4619   0.722E-02    0.413E-01
RMM:  11    -0.233171866855E+04   -0.19749E-01   -0.46716E-03  5114   0.466E-02    0.208E-01
RMM:  12    -0.233174637414E+04   -0.27706E-01   -0.40353E-03  4478   0.368E-02    0.138E-01
RMM:  13    -0.233176882351E+04   -0.22449E-01   -0.39692E-03  4448   0.394E-02    0.867E-02
RMM:  14    -0.233177951748E+04   -0.10694E-01   -0.29591E-03  4655   0.346E-02    0.547E-02
RMM:  15    -0.233178322989E+04   -0.37124E-02   -0.10731E-03  4486   0.213E-02    0.272E-02
RMM:  16    -0.233178447034E+04   -0.12405E-02   -0.29328E-04  4272   0.112E-02    0.129E-02
RMM:  17    -0.233178496271E+04   -0.49237E-03   -0.83800E-05  3824   0.665E-03    0.777E-03
RMM:  18    -0.233178511860E+04   -0.15589E-03   -0.23056E-05  3133   0.434E-03    0.363E-03
RMM:  19    -0.233178517084E+04   -0.52244E-04   -0.99324E-06  2882   0.342E-03    0.253E-03
RMM:  20    -0.233178518423E+04   -0.13383E-04   -0.54360E-06  2777   0.280E-03    0.147E-03
RMM:  21    -0.233178518631E+04   -0.20880E-05   -0.26226E-06  2542   0.212E-03
   9 F= -.23533240E+04 E0= -.23533239E+04  d E =-.683254E+00  mag=     2.0003
       N       E                     dE             d eps       ncg     rms          rms(c)
DAV:   1    -0.233178803856E+04   -0.28543E-02   -0.87921E+00  4560   0.253E+00    0.911E-01
RMM:   2    -0.233192218330E+04   -0.13414E+00   -0.14462E+00  6435   0.578E-01    0.814E-01
RMM:   3    -0.233193547768E+04   -0.13294E-01   -0.18046E-01  6275   0.244E-01    0.945E-01
RMM:   4    -0.233192756470E+04    0.79130E-02   -0.19262E-02  6331   0.569E-02    0.472E-01
RMM:   5    -0.233192624036E+04    0.13243E-02   -0.38812E-03  5751   0.276E-02    0.337E-01
RMM:   6    -0.233192534415E+04    0.89621E-03   -0.29784E-03  5668   0.283E-02    0.256E-01
RMM:   7    -0.233192497263E+04    0.37152E-03   -0.22074E-03  5578   0.254E-02    0.172E-01
RMM:   8    -0.233192458240E+04    0.39022E-03   -0.43986E-04  5086   0.123E-02    0.345E-02
RMM:   9    -0.233192455470E+04    0.27704E-04   -0.64332E-05  3090   0.736E-03    0.246E-02
RMM:  10    -0.233192454838E+04    0.63182E-05   -0.56350E-05  3202   0.524E-03
  10 F= -.23534629E+04 E0= -.23534629E+04  d E =-.138918E+00  mag=     2.0001
       N       E                     dE             d eps       ncg     rms          rms(c)
DAV:   1    -0.233176870287E+04    0.15585E+00   -0.13993E+01  4528   0.318E+00    0.115E+00
RMM:   2    -0.233198512765E+04   -0.21642E+00   -0.23303E+00  6431   0.745E-01    0.101E+00
RMM:   3    -0.233200392733E+04   -0.18800E-01   -0.29462E-01  6280   0.313E-01    0.109E+00
RMM:   4    -0.233199315630E+04    0.10771E-01   -0.29599E-02  6357   0.712E-02    0.579E-01
RMM:   5    -0.233199127073E+04    0.18856E-02   -0.58947E-03  5855   0.345E-02    0.426E-01
RMM:   6    -0.233198996522E+04    0.13055E-02   -0.47637E-03  5759   0.353E-02    0.328E-01
RMM:   7    -0.233198925471E+04    0.71051E-03   -0.34806E-03  5858   0.319E-02    0.206E-01
RMM:   8    -0.233198868212E+04    0.57259E-03   -0.66079E-04  5320   0.150E-02    0.412E-02
RMM:   9    -0.233198864400E+04    0.38122E-04   -0.96518E-05  3394   0.850E-03    0.291E-02
RMM:  10    -0.233198863629E+04    0.77063E-05   -0.78947E-05  3427   0.619E-03
  11 F= -.23535265E+04 E0= -.23535265E+04  d E =-.202502E+00  mag=     2.0000
       N       E                     dE             d eps       ncg     rms          rms(c)
DAV:   1    -0.233202597376E+04   -0.37330E-01   -0.36230E+00  4656   0.177E+00    0.663E-01
RMM:   2    -0.233207750215E+04   -0.51528E-01   -0.56614E-01  6410   0.407E-01    0.544E-01
RMM:   3    -0.233208390213E+04   -0.64000E-02   -0.71687E-02  6242   0.169E-01    0.720E-01
RMM:   4    -0.233207989319E+04    0.40089E-02   -0.72773E-03  6285   0.423E-02    0.273E-01
RMM:   5    -0.233207943903E+04    0.45416E-03   -0.25577E-03  5789   0.244E-02    0.233E-01
RMM:   6    -0.233207869378E+04    0.74525E-03   -0.17579E-03  5495   0.240E-02    0.811E-02
RMM:   7    -0.233207881955E+04   -0.12577E-03   -0.52241E-04  4720   0.156E-02    0.126E-01
RMM:   8    -0.233207862322E+04    0.19633E-03   -0.16985E-04  3325   0.747E-03    0.333E-02
RMM:   9    -0.233207862084E+04    0.23769E-05   -0.34561E-05  2989   0.504E-03
  12 F= -.23536149E+04 E0= -.23536149E+04  d E =-.883701E-01  mag=     2.0000
       N       E                     dE             d eps       ncg     rms          rms(c)
DAV:   1    -0.233201537085E+04    0.63252E-01   -0.76466E+00  4544   0.258E+00    0.962E-01
RMM:   2    -0.233212495622E+04   -0.10959E+00   -0.12015E+00  6387   0.594E-01    0.823E-01
RMM:   3    -0.233213885352E+04   -0.13897E-01   -0.15469E-01  6247   0.249E-01    0.110E+00
RMM:   4    -0.233212943201E+04    0.94215E-02   -0.15484E-02  6459   0.621E-02    0.393E-01
RMM:   5    -0.233212846450E+04    0.96751E-03   -0.53720E-03  6033   0.351E-02    0.333E-01
RMM:   6    -0.233212687953E+04    0.15850E-02   -0.37347E-03  5553   0.346E-02    0.120E-01
RMM:   7    -0.233212707229E+04   -0.19276E-03   -0.10530E-03  5178   0.220E-02    0.178E-01
RMM:   8    -0.233212668432E+04    0.38797E-03   -0.35447E-04  3978   0.102E-02    0.475E-02
RMM:   9    -0.233212665812E+04    0.26196E-04   -0.74296E-05  3206   0.663E-03    0.182E-02
RMM:  10    -0.233212666117E+04   -0.30464E-05   -0.39867E-05  3309   0.552E-03
  13 F= -.23536606E+04 E0= -.23536606E+04  d E =-.134103E+00  mag=     1.9999
       N       E                     dE             d eps       ncg     rms          rms(c)
DAV:   1    -0.233207574029E+04    0.50918E-01   -0.72011E+00  4544   0.248E+00    0.916E-01
RMM:   2    -0.233219290481E+04   -0.11716E+00   -0.12783E+00  6481   0.583E-01    0.607E-01
RMM:   3    -0.233220243405E+04   -0.95292E-02   -0.14710E-01  6322   0.234E-01    0.553E-01
RMM:   4    -0.233219930659E+04    0.31275E-02   -0.14844E-02  6454   0.554E-02    0.335E-01
RMM:   5    -0.233219909809E+04    0.20850E-03   -0.34254E-03  5793   0.272E-02    0.361E-01
RMM:   6    -0.233219780499E+04    0.12931E-02   -0.29293E-03  5714   0.273E-02    0.187E-01
RMM:   7    -0.233219787186E+04   -0.66869E-04   -0.10233E-03  4853   0.173E-02    0.199E-01
RMM:   8    -0.233219745196E+04    0.41990E-03   -0.32984E-04  4065   0.991E-03    0.320E-02
RMM:   9    -0.233219744252E+04    0.94368E-05   -0.54170E-05  3036   0.605E-03
  14 F= -.23537292E+04 E0= -.23537292E+04  d E =-.686112E-01  mag=     1.9999
       N       E                     dE             d eps       ncg     rms          rms(c)
DAV:   1    -0.233215647786E+04    0.40974E-01   -0.32501E+00  4608   0.167E+00    0.613E-01
RMM:   2    -0.233220878072E+04   -0.52303E-01   -0.57030E-01  6476   0.392E-01    0.409E-01
RMM:   3    -0.233221359297E+04   -0.48123E-02   -0.70559E-02  6284   0.163E-01    0.382E-01
RMM:   4    -0.233221224521E+04    0.13478E-02   -0.68867E-03  6121   0.375E-02    0.239E-01
RMM:   5    -0.233221200158E+04    0.24364E-03   -0.16642E-03  5521   0.194E-02    0.225E-01
RMM:   6    -0.233221139809E+04    0.60349E-03   -0.13063E-03  5451   0.193E-02    0.104E-01
RMM:   7    -0.233221151820E+04   -0.12011E-03   -0.44361E-04  4155   0.123E-02    0.154E-01
RMM:   8    -0.233221128931E+04    0.22889E-03   -0.15847E-04  3295   0.737E-03    0.209E-02
RMM:   9    -0.233221128886E+04    0.44155E-06   -0.28356E-05  2974   0.495E-03
  15 F= -.23537417E+04 E0= -.23537417E+04  d E =-.810481E-01  mag=     1.9999
       N       E                     dE             d eps       ncg     rms          rms(c)
DAV:   1    -0.233218418588E+04    0.27103E-01   -0.36779E+00  4544   0.176E+00    0.663E-01
RMM:   2    -0.233226122653E+04   -0.77041E-01   -0.72131E-01  6495   0.447E-01    0.110E+00
RMM:   3    -0.233225560192E+04    0.56246E-02   -0.76825E-02  6390   0.161E-01    0.571E-01
RMM:   4    -0.233225347199E+04    0.21299E-02   -0.98525E-03  5623   0.423E-02    0.314E-01
RMM:   5    -0.233225262377E+04    0.84822E-03   -0.23342E-03  5566   0.253E-02    0.201E-01
RMM:   6    -0.233225252862E+04    0.95153E-04   -0.13889E-03  5182   0.212E-02    0.200E-01
RMM:   7    -0.233225212120E+04    0.40742E-03   -0.70623E-04  4454   0.174E-02    0.894E-02
RMM:   8    -0.233225202780E+04    0.93394E-04   -0.11944E-04  3657   0.725E-03    0.222E-02
RMM:   9    -0.233225202145E+04    0.63549E-05   -0.18798E-05  2940   0.561E-03
  16 F= -.23537813E+04 E0= -.23537813E+04  d E =-.396216E-01  mag=     1.9999
       N       E                     dE             d eps       ncg     rms          rms(c)
DAV:   1    -0.233222942717E+04    0.22601E-01   -0.16987E+00  4608   0.120E+00    0.448E-01
RMM:   2    -0.233226441717E+04   -0.34990E-01   -0.33295E-01  6500   0.304E-01    0.708E-01
RMM:   3    -0.233226258410E+04    0.18331E-02   -0.35431E-02  6357   0.110E-01    0.393E-01
RMM:   4    -0.233226150915E+04    0.10750E-02   -0.44286E-03  5367   0.287E-02    0.208E-01
RMM:   5    -0.233226117170E+04    0.33745E-03   -0.10773E-03  4901   0.178E-02    0.144E-01
RMM:   6    -0.233226116409E+04    0.76080E-05   -0.68943E-04  4879   0.149E-02    0.153E-01
RMM:   7    -0.233226089205E+04    0.27204E-03   -0.37132E-04  3797   0.130E-02    0.552E-02
RMM:   8    -0.233226085265E+04    0.39402E-04   -0.64116E-05  3298   0.585E-03    0.152E-02
RMM:   9    -0.233226084737E+04    0.52759E-05   -0.10776E-05  2907   0.469E-03
  17 F= -.23537894E+04 E0= -.23537894E+04  d E =-.477241E-01  mag=     1.9999
       N       E                     dE             d eps       ncg     rms          rms(c)
DAV:   1    -0.233222156437E+04    0.39288E-01   -0.32968E+00  4544   0.168E+00    0.645E-01
RMM:   2    -0.233230666618E+04   -0.85102E-01   -0.75825E-01  6579   0.442E-01    0.126E+00
RMM:   3    -0.233229762133E+04    0.90449E-02   -0.90129E-02  6449   0.169E-01    0.449E-01
RMM:   4    -0.233229623856E+04    0.13828E-02   -0.90758E-03  5320   0.367E-02    0.227E-01
RMM:   5    -0.233229591467E+04    0.32389E-03   -0.13895E-03  5030   0.193E-02    0.191E-01
RMM:   6    -0.233229562840E+04    0.28627E-03   -0.12112E-03  5289   0.189E-02    0.163E-01
RMM:   7    -0.233229549738E+04    0.13102E-03   -0.60995E-04  4320   0.155E-02    0.116E-01
RMM:   8    -0.233229534121E+04    0.15616E-03   -0.14197E-04  3240   0.709E-03    0.233E-02
RMM:   9    -0.233229533177E+04    0.94404E-05   -0.21045E-05  2945   0.490E-03
  18 F= -.23538224E+04 E0= -.23538224E+04  d E =-.329618E-01  mag=     1.9999
       N       E                     dE             d eps       ncg     rms          rms(c)
DAV:   1    -0.233216807720E+04    0.12726E+00   -0.64923E+00  4528   0.236E+00    0.903E-01
RMM:   2    -0.233233425939E+04   -0.16618E+00   -0.15058E+00  6586   0.628E-01    0.167E+00
RMM:   3    -0.233231896692E+04    0.15292E-01   -0.17652E-01  6481   0.236E-01    0.636E-01
RMM:   4    -0.233231610945E+04    0.28575E-02   -0.17696E-02  5486   0.516E-02    0.316E-01
RMM:   5    -0.233231548323E+04    0.62622E-03   -0.28489E-03  5439   0.269E-02    0.267E-01
RMM:   6    -0.233231483173E+04    0.65150E-03   -0.24192E-03  5461   0.264E-02    0.214E-01
RMM:   7    -0.233231467787E+04    0.15386E-03   -0.11627E-03  4809   0.207E-02    0.166E-01
RMM:   8    -0.233231434307E+04    0.33480E-03   -0.28995E-04  3957   0.948E-03    0.342E-02
RMM:   9    -0.233231432170E+04    0.21371E-04   -0.41448E-05  2940   0.617E-03    0.163E-02
RMM:  10    -0.233231431664E+04    0.50598E-05   -0.30448E-05  2937   0.415E-03
  19 F= -.23538393E+04 E0= -.23538393E+04  d E =-.498773E-01  mag=     2.0000
       N       E                     dE             d eps       ncg     rms          rms(c)
DAV:   1    -0.233230820106E+04    0.61206E-02   -0.15271E+00  4592   0.116E+00    0.428E-01
RMM:   2    -0.233234020686E+04   -0.32006E-01   -0.29823E-01  6550   0.289E-01    0.707E-01
RMM:   3    -0.233233844037E+04    0.17665E-02   -0.33397E-02  6286   0.106E-01    0.338E-01
RMM:   4    -0.233233751353E+04    0.92685E-03   -0.34815E-03  4965   0.249E-02    0.131E-01
RMM:   5    -0.233233748913E+04    0.24396E-04   -0.69114E-04  4581   0.152E-02    0.136E-01
RMM:   6    -0.233233725024E+04    0.23889E-03   -0.58437E-04  5123   0.142E-02    0.637E-02
RMM:   7    -0.233233725399E+04   -0.37587E-05   -0.13248E-04  3173   0.944E-03    0.571E-02
RMM:   8    -0.233233721434E+04    0.39660E-04   -0.41143E-05  2927   0.468E-03    0.150E-02
RMM:   9    -0.233233720908E+04    0.52504E-05   -0.86976E-06  2910   0.298E-03
  20 F= -.23538613E+04 E0= -.23538613E+04  d E =-.220342E-01  mag=     2.0000
       N       E                     dE             d eps       ncg     rms          rms(c)
DAV:   1    -0.233222063681E+04    0.11658E+00   -0.72200E+00  4512   0.254E+00    0.932E-01
RMM:   2    -0.233237158364E+04   -0.15095E+00   -0.14158E+00  6548   0.633E-01    0.151E+00
RMM:   3    -0.233236422976E+04    0.73539E-02   -0.16135E-01  6401   0.235E-01    0.746E-01
RMM:   4    -0.233235973484E+04    0.44949E-02   -0.16612E-02  5430   0.542E-02    0.291E-01
RMM:   5    -0.233235954286E+04    0.19198E-03   -0.32353E-03  5627   0.311E-02    0.293E-01
RMM:   6    -0.233235838456E+04    0.11583E-02   -0.27419E-03  5600   0.294E-02    0.134E-01
RMM:   7    -0.233235831351E+04    0.71045E-04   -0.54765E-04  4679   0.173E-02    0.895E-02
RMM:   8    -0.233235822514E+04    0.88374E-04   -0.14571E-04  3167   0.762E-03    0.402E-02
RMM:   9    -0.233235818964E+04    0.35494E-04   -0.35478E-05  2927   0.518E-03    0.162E-02
RMM:  10    -0.233235817806E+04    0.11586E-04   -0.34484E-05  3003   0.450E-03    0.710E-03
RMM:  11    -0.233235817690E+04    0.11539E-05   -0.81517E-06  2906   0.389E-03
  21 F= -.23538805E+04 E0= -.23538805E+04  d E =-.411890E-01  mag=     2.0000
       N       E                     dE             d eps       ncg     rms          rms(c)
DAV:   1    -0.233235305824E+04    0.51198E-02   -0.13258E+00  4544   0.104E+00    0.350E-01
RMM:   2    -0.233237297652E+04   -0.19918E-01   -0.21334E-01  6567   0.242E-01    0.286E-01
RMM:   3    -0.233237565260E+04   -0.26761E-02   -0.26736E-02  6085   0.934E-02    0.363E-01
RMM:   4    -0.233237434118E+04    0.13114E-02   -0.25522E-03  4973   0.226E-02    0.151E-01
RMM:   5    -0.233237431300E+04    0.28188E-04   -0.68889E-04  4302   0.126E-02    0.143E-01
RMM:   6    -0.233237412400E+04    0.18900E-03   -0.48390E-04  4513   0.122E-02    0.837E-02
RMM:   7    -0.233237409800E+04    0.25994E-04   -0.26108E-04  3885   0.991E-03    0.637E-02
RMM:   8    -0.233237404064E+04    0.57358E-04   -0.56731E-05  2933   0.603E-03    0.116E-02
RMM:   9    -0.233237403632E+04    0.43237E-05   -0.12548E-05  2945   0.362E-03
  22 F= -.23538964E+04 E0= -.23538964E+04  d E =-.159054E-01  mag=     2.0000
       N       E                     dE             d eps       ncg     rms          rms(c)
DAV:   1    -0.233233780970E+04    0.36231E-01   -0.28153E+00  4528   0.151E+00    0.511E-01
RMM:   2    -0.233238011774E+04   -0.42308E-01   -0.45389E-01  6548   0.352E-01    0.422E-01
RMM:   3    -0.233238597228E+04   -0.58545E-02   -0.57640E-02  6210   0.138E-01    0.545E-01
RMM:   4    -0.233238306757E+04    0.29047E-02   -0.54828E-03  5645   0.329E-02    0.222E-01
RMM:   5    -0.233238300546E+04    0.62116E-04   -0.14125E-03  5227   0.175E-02    0.211E-01
RMM:   6    -0.233238258865E+04    0.41680E-03   -0.10186E-03  5198   0.166E-02    0.121E-01
RMM:   7    -0.233238254487E+04    0.43780E-04   -0.58506E-04  4995   0.135E-02    0.984E-02
RMM:   8    -0.233238240706E+04    0.13781E-03   -0.13646E-04  3129   0.733E-03    0.188E-02
RMM:   9    -0.233238239487E+04    0.12185E-04   -0.27911E-05  2952   0.476E-03    0.114E-02
RMM:  10    -0.233238239149E+04    0.33886E-05   -0.13082E-05  2957   0.315E-03
  23 F= -.23539048E+04 E0= -.23539048E+04  d E =-.243454E-01  mag=     2.0000
       N       E                     dE             d eps       ncg     rms          rms(c)
DAV:   1    -0.233237861890E+04    0.37760E-02   -0.88381E-01  4544   0.889E-01    0.311E-01
RMM:   2    -0.233239152323E+04   -0.12904E-01   -0.13289E-01  6358   0.195E-01    0.346E-01
RMM:   3    -0.233239253306E+04   -0.10098E-02   -0.16423E-02  6144   0.808E-02    0.335E-01
RMM:   4    -0.233239163019E+04    0.90287E-03   -0.16943E-03  5232   0.204E-02    0.117E-01
RMM:   5    -0.233239165634E+04   -0.26147E-04   -0.58457E-04  4565   0.125E-02    0.140E-01
RMM:   6    -0.233239146758E+04    0.18876E-03   -0.42166E-04  4430   0.120E-02    0.817E-02
RMM:   7    -0.233239140615E+04    0.61436E-04   -0.18791E-04  3355   0.958E-03    0.440E-02
RMM:   8    -0.233239138030E+04    0.25843E-04   -0.29748E-05  2923   0.519E-03    0.107E-02
RMM:   9    -0.233239137952E+04    0.78068E-06   -0.83086E-06  2929   0.342E-03
  24 F= -.23539138E+04 E0= -.23539138E+04  d E =-.896244E-02  mag=     2.0000
       N       E                     dE             d eps       ncg     rms          rms(c)
DAV:   1    -0.233238655550E+04    0.48248E-02   -0.46595E-01  4576   0.646E-01    0.226E-01
RMM:   2    -0.233239337268E+04   -0.68172E-02   -0.70213E-02  6327   0.143E-01    0.251E-01
RMM:   3    -0.233239390208E+04   -0.52941E-03   -0.86761E-03  6076   0.592E-02    0.244E-01
RMM:   4    -0.233239342148E+04    0.48060E-03   -0.89092E-04  4433   0.149E-02    0.858E-02
RMM:   5    -0.233239343446E+04   -0.12976E-04   -0.30761E-04  3675   0.967E-03    0.103E-01
RMM:   6    -0.233239333149E+04    0.10297E-03   -0.23146E-04  4005   0.969E-03    0.603E-02
RMM:   7    -0.233239329712E+04    0.34368E-04   -0.10490E-04  3085   0.753E-03    0.319E-02
RMM:   8    -0.233239328308E+04    0.14047E-04   -0.17656E-05  2917   0.459E-03    0.808E-03
RMM:   9    -0.233239328245E+04    0.62781E-06   -0.59365E-06  2907   0.285E-03
  25 F= -.23539157E+04 E0= -.23539157E+04  d E =-.108500E-01  mag=     2.0000
       N       E                     dE             d eps       ncg     rms          rms(c)
DAV:   1    -0.233239032804E+04    0.29550E-02   -0.87901E-01  4544   0.896E-01    0.290E-01
RMM:   2    -0.233240378810E+04   -0.13460E-01   -0.13058E-01  6463   0.190E-01    0.433E-01
RMM:   3    -0.233240365898E+04    0.12912E-03   -0.15478E-02  6121   0.750E-02    0.254E-01
RMM:   4    -0.233240318921E+04    0.46976E-03   -0.16303E-03  4932   0.188E-02    0.119E-01
RMM:   5    -0.233240312447E+04    0.64747E-04   -0.45995E-04  3955   0.110E-02    0.111E-01
RMM:   6    -0.233240305021E+04    0.74257E-04   -0.40958E-04  4492   0.117E-02    0.869E-02
RMM:   7    -0.233240298014E+04    0.70074E-04   -0.16835E-04  3171   0.867E-03    0.425E-02
RMM:   8    -0.233240295958E+04    0.20553E-04   -0.22884E-05  2933   0.474E-03    0.953E-03
RMM:   9    -0.233240296032E+04   -0.73688E-06   -0.65710E-06  2911   0.285E-03
  26 F= -.23539251E+04 E0= -.23539251E+04  d E =-.948694E-02  mag=     2.0000
       N       E                     dE             d eps       ncg     rms          rms(c)
DAV:   1    -0.233236291689E+04    0.40043E-01   -0.33062E+00  4528   0.174E+00    0.564E-01
RMM:   2    -0.233241372852E+04   -0.50812E-01   -0.49267E-01  6432   0.370E-01    0.839E-01
RMM:   3    -0.233241302697E+04    0.70155E-03   -0.58938E-02  6272   0.146E-01    0.480E-01
RMM:   4    -0.233241129015E+04    0.17368E-02   -0.60752E-03  5905   0.361E-02    0.227E-01
RMM:   5    -0.233241106861E+04    0.22154E-03   -0.17280E-03  5414   0.201E-02    0.214E-01
RMM:   6    -0.233241075741E+04    0.31120E-03   -0.14527E-03  5425   0.204E-02    0.165E-01
RMM:   7    -0.233241051313E+04    0.24428E-03   -0.61575E-04  4616   0.145E-02    0.852E-02
RMM:   8    -0.233241042709E+04    0.86039E-04   -0.79357E-05  3072   0.612E-03    0.185E-02
RMM:   9    -0.233241042828E+04   -0.11913E-05   -0.19291E-05  2949   0.448E-03
  27 F= -.23539323E+04 E0= -.23539323E+04  d E =-.166032E-01  mag=     2.0000
       N       E                     dE             d eps       ncg     rms          rms(c)
DAV:   1    -0.233241168460E+04   -0.12575E-02   -0.59152E-01  4592   0.744E-01    0.224E-01
RMM:   2    -0.233241828197E+04   -0.65974E-02   -0.69309E-02  6445   0.149E-01    0.176E-01
RMM:   3    -0.233241902934E+04   -0.74737E-03   -0.77345E-03  5940   0.568E-02    0.216E-01
RMM:   4    -0.233241865258E+04    0.37676E-03   -0.81693E-04  3916   0.145E-02    0.971E-02
RMM:   5    -0.233241865523E+04   -0.26529E-05   -0.29917E-04  3483   0.997E-03    0.908E-02
RMM:   6    -0.233241858461E+04    0.70629E-04   -0.23419E-04  3996   0.971E-03    0.562E-02
RMM:   7    -0.233241856679E+04    0.17811E-04   -0.80271E-05  2985   0.679E-03    0.372E-02
RMM:   8    -0.233241854953E+04    0.17260E-04   -0.17222E-05  2903   0.390E-03    0.773E-03
RMM:   9    -0.233241854884E+04    0.69616E-06   -0.36935E-06  2890   0.222E-03
  28 F= -.23539404E+04 E0= -.23539404E+04  d E =-.811647E-02  mag=     2.0000
       N       E                     dE             d eps       ncg     rms          rms(c)
DAV:   1    -0.233238612467E+04    0.32425E-01   -0.38672E+00  4512   0.190E+00    0.573E-01
RMM:   2    -0.233242914535E+04   -0.43021E-01   -0.45253E-01  6436   0.380E-01    0.457E-01
RMM:   3    -0.233243393817E+04   -0.47928E-02   -0.52013E-02  6218   0.147E-01    0.552E-01
RMM:   4    -0.233243146941E+04    0.24688E-02   -0.54087E-03  6113   0.367E-02    0.250E-01
RMM:   5    -0.233243141151E+04    0.57903E-04   -0.19402E-03  5516   0.216E-02    0.224E-01
RMM:   6    -0.233243095174E+04    0.45977E-03   -0.14472E-03  5484   0.210E-02    0.141E-01
RMM:   7    -0.233243084140E+04    0.11033E-03   -0.50736E-04  4266   0.132E-02    0.981E-02
RMM:   8    -0.233243071267E+04    0.12873E-03   -0.10438E-04  3004   0.650E-03    0.200E-02
RMM:   9    -0.233243070323E+04    0.94447E-05   -0.19744E-05  2962   0.388E-03
  29 F= -.23539525E+04 E0= -.23539525E+04  d E =-.202605E-01  mag=     2.0000
       N       E                     dE             d eps       ncg     rms          rms(c)
DAV:   1    -0.233223969886E+04    0.19101E+00   -0.15475E+01  4512   0.380E+00    0.115E+00
RMM:   2    -0.233241272681E+04   -0.17303E+00   -0.18186E+00  6446   0.764E-01    0.933E-01
RMM:   3    -0.233243200534E+04   -0.19279E-01   -0.21358E-01  6229   0.296E-01    0.109E+00
RMM:   4    -0.233242225775E+04    0.97476E-02   -0.21788E-02  6450   0.736E-02    0.504E-01
RMM:   5    -0.233242168196E+04    0.57579E-03   -0.76287E-03  6051   0.420E-02    0.427E-01
RMM:   6    -0.233242001775E+04    0.16642E-02   -0.58240E-03  5746   0.411E-02    0.270E-01
RMM:   7    -0.233241974773E+04    0.27001E-03   -0.20092E-03  5589   0.249E-02    0.214E-01
RMM:   8    -0.233241913271E+04    0.61502E-03   -0.49352E-04  4017   0.116E-02    0.429E-02
RMM:   9    -0.233241908817E+04    0.44541E-04   -0.85176E-05  3035   0.618E-03    0.212E-02
RMM:  10    -0.233241907475E+04    0.13420E-04   -0.37347E-05  3002   0.518E-03    0.942E-03
RMM:  11    -0.233241907211E+04    0.26398E-05   -0.14378E-05  2942   0.461E-03
  30 F= -.23539409E+04 E0= -.23539409E+04  d E =-.862031E-02  mag=     2.0000
       N       E                     dE             d eps       ncg     rms          rms(c)
DAV:   1    -0.233233310599E+04    0.85969E-01   -0.85528E+00  4512   0.283E+00    0.849E-01
RMM:   2    -0.233242835716E+04   -0.95251E-01   -0.10067E+00  6440   0.567E-01    0.635E-01
RMM:   3    -0.233243923494E+04   -0.10878E-01   -0.11303E-01  6240   0.216E-01    0.808E-01
RMM:   4    -0.233243389384E+04    0.53411E-02   -0.11768E-02  6431   0.537E-02    0.366E-01
RMM:   5    -0.233243396099E+04   -0.67149E-04   -0.42577E-03  5856   0.311E-02    0.350E-01
RMM:   6    -0.233243283039E+04    0.11306E-02   -0.31209E-03  5816   0.293E-02    0.205E-01
RMM:   7    -0.233243263505E+04    0.19534E-03   -0.11089E-03  5159   0.179E-02    0.155E-01
RMM:   8    -0.233243231079E+04    0.32426E-03   -0.29673E-04  3660   0.953E-03    0.307E-02
RMM:   9    -0.233243229002E+04    0.20771E-04   -0.42307E-05  2970   0.501E-03    0.155E-02
RMM:  10    -0.233243228382E+04    0.61943E-05   -0.20336E-05  2950   0.376E-03
  31 F= -.23539541E+04 E0= -.23539541E+04  d E =-.218365E-01  mag=     2.0000
       N       E                     dE             d eps       ncg     rms          rms(c)
DAV:   1    -0.233241870160E+04    0.13588E-01   -0.15370E+00  4544   0.118E+00    0.379E-01
RMM:   2    -0.233244069617E+04   -0.21995E-01   -0.23348E-01  6537   0.255E-01    0.267E-01
RMM:   3    -0.233244358679E+04   -0.28906E-02   -0.28812E-02  6044   0.102E-01    0.379E-01
RMM:   4    -0.233244221830E+04    0.13685E-02   -0.27083E-03  4852   0.245E-02    0.148E-01
RMM:   5    -0.233244230546E+04   -0.87154E-04   -0.73553E-04  5044   0.134E-02    0.200E-01
RMM:   6    -0.233244192171E+04    0.38375E-03   -0.66679E-04  4945   0.145E-02    0.622E-02
RMM:   7    -0.233244190413E+04    0.17573E-04   -0.19088E-04  4147   0.867E-03    0.478E-02
RMM:   8    -0.233244187208E+04    0.32058E-04   -0.55728E-05  2922   0.608E-03    0.164E-02
RMM:   9    -0.233244186634E+04    0.57357E-05   -0.12182E-05  2931   0.329E-03
  32 F= -.23539640E+04 E0= -.23539640E+04  d E =-.986255E-02  mag=     2.0000
       N       E                     dE             d eps       ncg     rms          rms(c)
DAV:   1    -0.233237485814E+04    0.67014E-01   -0.46116E+00  4512   0.205E+00    0.656E-01
RMM:   2    -0.233244078139E+04   -0.65923E-01   -0.70043E-01  6509   0.440E-01    0.452E-01
RMM:   3    -0.233244930113E+04   -0.85197E-02   -0.87197E-02  6157   0.178E-01    0.623E-01
RMM:   4    -0.233244559157E+04    0.37096E-02   -0.80509E-03  5910   0.416E-02    0.262E-01
RMM:   5    -0.233244570815E+04   -0.11659E-03   -0.21295E-03  5580   0.213E-02    0.332E-01
RMM:   6    -0.233244474635E+04    0.96181E-03   -0.19119E-03  5639   0.235E-02    0.126E-01
RMM:   7    -0.233244466428E+04    0.82068E-04   -0.64574E-04  5292   0.140E-02    0.896E-02
RMM:   8    -0.233244455241E+04    0.11187E-03   -0.19212E-04  3072   0.886E-03    0.309E-02
RMM:   9    -0.233244453345E+04    0.18953E-04   -0.37764E-05  2951   0.491E-03    0.160E-02
RMM:  10    -0.233244453177E+04    0.16857E-05   -0.26767E-05  2960   0.416E-03
  33 F= -.23539671E+04 E0= -.23539671E+04  d E =-.130205E-01  mag=     2.0000
       N       E                     dE             d eps       ncg     rms          rms(c)
DAV:   1    -0.233243855330E+04    0.59801E-02   -0.46596E-01  4656   0.650E-01    0.209E-01
RMM:   2    -0.233244522636E+04   -0.66731E-02   -0.70605E-02  6541   0.140E-01    0.150E-01
RMM:   3    -0.233244612221E+04   -0.89585E-03   -0.86680E-03  5700   0.558E-02    0.215E-01
RMM:   4    -0.233244569899E+04    0.42322E-03   -0.81632E-04  3147   0.137E-02    0.807E-02
RMM:   5    -0.233244573952E+04   -0.40529E-04   -0.22882E-04  3381   0.857E-03    0.111E-01
RMM:   6    -0.233244561720E+04    0.12231E-03   -0.19994E-04  3633   0.928E-03    0.293E-02
RMM:   7    -0.233244561973E+04   -0.25297E-05   -0.56016E-05  3010   0.606E-03
  34 F= -.23539680E+04 E0= -.23539680E+04  d E =-.139505E-01  mag=     2.0000
       N       E                     dE             d eps       ncg     rms          rms(c)
DAV:   1    -0.233242930307E+04    0.16314E-01   -0.12744E+00  4544   0.104E+00    0.359E-01
RMM:   2    -0.233245155601E+04   -0.22253E-01   -0.23178E-01  6551   0.243E-01    0.298E-01
RMM:   3    -0.233245395169E+04   -0.23957E-02   -0.27821E-02  6161   0.947E-02    0.348E-01
RMM:   4    -0.233245279076E+04    0.11609E-02   -0.27433E-03  4692   0.230E-02    0.139E-01
RMM:   5    -0.233245282461E+04   -0.33849E-04   -0.61256E-04  4642   0.121E-02    0.179E-01
RMM:   6    -0.233245253366E+04    0.29095E-03   -0.49506E-04  4584   0.125E-02    0.717E-02
RMM:   7    -0.233245252373E+04    0.99273E-05   -0.29831E-04  3722   0.995E-03    0.601E-02
RMM:   8    -0.233245247168E+04    0.52056E-04   -0.69254E-05  2978   0.631E-03    0.144E-02
RMM:   9    -0.233245246781E+04    0.38610E-05   -0.10692E-05  2923   0.377E-03
  35 F= -.23539754E+04 E0= -.23539754E+04  d E =-.734585E-02  mag=     2.0000
       N       E                     dE             d eps       ncg     rms          rms(c)
DAV:   1    -0.233239170323E+04    0.60768E-01   -0.34388E+00  4512   0.172E+00    0.595E-01
RMM:   2    -0.233245208165E+04   -0.60378E-01   -0.62836E-01  6582   0.401E-01    0.497E-01
RMM:   3    -0.233245820765E+04   -0.61260E-02   -0.75059E-02  6316   0.157E-01    0.553E-01
RMM:   4    -0.233245519505E+04    0.30126E-02   -0.73970E-03  5691   0.375E-02    0.230E-01
RMM:   5    -0.233245526647E+04   -0.71421E-04   -0.16492E-03  5490   0.185E-02    0.293E-01
RMM:   6    -0.233245452744E+04    0.73903E-03   -0.13142E-03  5287   0.191E-02    0.123E-01
RMM:   7    -0.233245450143E+04    0.26006E-04   -0.80352E-04  5069   0.150E-02    0.102E-01
RMM:   8    -0.233245435583E+04    0.14560E-03   -0.18800E-04  3456   0.830E-03    0.248E-02
RMM:   9    -0.233245434625E+04    0.95746E-05   -0.24892E-05  2958   0.496E-03
  36 F= -.23539781E+04 E0= -.23539781E+04  d E =-.100487E-01  mag=     2.0000
       N       E                     dE             d eps       ncg     rms          rms(c)
DAV:   1    -0.233245089652E+04    0.34593E-02   -0.22621E-01  4704   0.440E-01    0.151E-01
RMM:   2    -0.233245477798E+04   -0.38815E-02   -0.40651E-02  6588   0.102E-01    0.119E-01
RMM:   3    -0.233245524361E+04   -0.46563E-03   -0.48446E-03  5051   0.396E-02    0.152E-01
RMM:   4    -0.233245503055E+04    0.21306E-03   -0.47300E-04  2986   0.103E-02    0.562E-02
RMM:   5    -0.233245504595E+04   -0.15398E-04   -0.11566E-04  3062   0.613E-03    0.755E-02
RMM:   6    -0.233245499484E+04    0.51111E-04   -0.88638E-05  3006   0.644E-03    0.292E-02
RMM:   7    -0.233245499430E+04    0.53299E-06   -0.47791E-05  2934   0.524E-03
  37 F= -.23539785E+04 E0= -.23539785E+04  d E =-.104841E-01  mag=     2.0000
       N       E                     dE             d eps       ncg     rms          rms(c)
DAV:   1    -0.233243384339E+04    0.21151E-01   -0.15315E+00  4544   0.110E+00    0.378E-01
RMM:   2    -0.233246198440E+04   -0.28141E-01   -0.28999E-01  6623   0.266E-01    0.365E-01
RMM:   3    -0.233246429648E+04   -0.23121E-02   -0.32674E-02  6309   0.101E-01    0.345E-01
RMM:   4    -0.233246324029E+04    0.10562E-02   -0.35606E-03  5331   0.237E-02    0.180E-01
RMM:   5    -0.233246311351E+04    0.12678E-03   -0.55275E-04  3438   0.106E-02    0.141E-01
RMM:   6    -0.233246295856E+04    0.15495E-03   -0.46648E-04  4250   0.121E-02    0.910E-02
RMM:   7    -0.233246291268E+04    0.45876E-04   -0.33858E-04  3673   0.103E-02    0.610E-02
RMM:   8    -0.233246285962E+04    0.53056E-04   -0.66477E-05  3047   0.607E-03    0.135E-02
RMM:   9    -0.233246285594E+04    0.36829E-05   -0.98393E-06  2933   0.377E-03
  38 F= -.23539867E+04 E0= -.23539867E+04  d E =-.817435E-02  mag=     2.0000
       N       E                     dE             d eps       ncg     rms          rms(c)
DAV:   1    -0.233224852266E+04    0.21434E+00   -0.11590E+01  4512   0.303E+00    0.107E+00
RMM:   2    -0.233247062174E+04   -0.22210E+00   -0.22472E+00  6658   0.751E-01    0.116E+00
RMM:   3    -0.233247970119E+04   -0.90795E-02   -0.25331E-01  6432   0.278E-01    0.865E-01
RMM:   4    -0.233247398878E+04    0.57124E-02   -0.27485E-02  6311   0.640E-02    0.556E-01
RMM:   5    -0.233247238511E+04    0.16037E-02   -0.42934E-03  5482   0.265E-02    0.374E-01
RMM:   6    -0.233247141992E+04    0.96519E-03   -0.35607E-03  5726   0.305E-02    0.262E-01
RMM:   7    -0.233247092108E+04    0.49883E-03   -0.26791E-03  5574   0.262E-02    0.156E-01
RMM:   8    -0.233247057996E+04    0.34112E-03   -0.43382E-04  4818   0.116E-02    0.392E-02
RMM:   9    -0.233247055044E+04    0.29521E-04   -0.59571E-05  3008   0.620E-03    0.297E-02
RMM:  10    -0.233247053429E+04    0.16151E-04   -0.65703E-05  3078   0.528E-03    0.639E-03
RMM:  11    -0.233247053355E+04    0.73995E-06   -0.11257E-05  2942   0.367E-03
  39 F= -.23539953E+04 E0= -.23539953E+04  d E =-.167685E-01  mag=     2.0000
       N       E                     dE             d eps       ncg     rms          rms(c)
DAV:   1    -0.233245070396E+04    0.19830E-01   -0.14628E+00  4544   0.109E+00    0.385E-01
RMM:   2    -0.233247891863E+04   -0.28215E-01   -0.27226E-01  6629   0.265E-01    0.581E-01
RMM:   3    -0.233247873248E+04    0.18615E-03   -0.29779E-02  6343   0.965E-02    0.318E-01
RMM:   4    -0.233247801701E+04    0.71547E-03   -0.32614E-03  5135   0.227E-02    0.157E-01
RMM:   5    -0.233247791067E+04    0.10634E-03   -0.56563E-04  3755   0.121E-02    0.138E-01
RMM:   6    -0.233247773163E+04    0.17904E-03   -0.51500E-04  4874   0.134E-02    0.766E-02
RMM:   7    -0.233247768878E+04    0.42847E-04   -0.24401E-04  3256   0.994E-03    0.474E-02
RMM:   8    -0.233247765834E+04    0.30447E-04   -0.38765E-05  2932   0.507E-03    0.120E-02
RMM:   9    -0.233247765515E+04    0.31893E-05   -0.73453E-06  2914   0.291E-03
  40 F= -.23540024E+04 E0= -.23540024E+04  d E =-.713887E-02  mag=     2.0000
       N       E                     dE             d eps       ncg     rms          rms(c)
DAV:   1    -0.233233248734E+04    0.14517E+00   -0.81532E+00  4512   0.257E+00    0.916E-01
RMM:   2    -0.233249270060E+04   -0.16021E+00   -0.15393E+00  6643   0.633E-01    0.140E+00
RMM:   3    -0.233248993693E+04    0.27637E-02   -0.16995E-01  6444   0.228E-01    0.741E-01
RMM:   4    -0.233248670982E+04    0.32271E-02   -0.19246E-02  5995   0.545E-02    0.436E-01
RMM:   5    -0.233248527840E+04    0.14314E-02   -0.34417E-03  5574   0.266E-02    0.306E-01
RMM:   6    -0.233248446751E+04    0.81089E-03   -0.27729E-03  5633   0.286E-02    0.191E-01
RMM:   7    -0.233248417034E+04    0.29717E-03   -0.14850E-03  5148   0.218E-02    0.110E-01
RMM:   8    -0.233248400354E+04    0.16680E-03   -0.20718E-04  3645   0.833E-03    0.302E-02
RMM:   9    -0.233248398454E+04    0.18997E-04   -0.36549E-05  2952   0.562E-03    0.175E-02
RMM:  10    -0.233248397848E+04    0.60671E-05   -0.35710E-05  2986   0.417E-03
  41 F= -.23540089E+04 E0= -.23540088E+04  d E =-.135519E-01  mag=     2.0000
       N       E                     dE             d eps       ncg     rms          rms(c)
DAV:   1    -0.233246041745E+04    0.23567E-01   -0.17395E+00  4544   0.118E+00    0.444E-01
RMM:   2    -0.233249864120E+04   -0.38224E-01   -0.33270E-01  6657   0.288E-01    0.920E-01
RMM:   3    -0.233249357756E+04    0.50636E-02   -0.35367E-02  6407   0.101E-01    0.256E-01
RMM:   4    -0.233249315594E+04    0.42162E-03   -0.37779E-03  5210   0.237E-02    0.135E-01
RMM:   5    -0.233249325201E+04   -0.96069E-04   -0.74704E-04  4430   0.138E-02    0.169E-01
RMM:   6    -0.233249298042E+04    0.27159E-03   -0.56105E-04  4867   0.134E-02    0.104E-01
RMM:   7    -0.233249292341E+04    0.57012E-04   -0.24384E-04  3221   0.967E-03    0.651E-02
RMM:   8    -0.233249286862E+04    0.54790E-04   -0.57917E-05  2947   0.543E-03    0.163E-02
RMM:   9    -0.233249286535E+04    0.32698E-05   -0.89660E-06  2918   0.303E-03
  42 F= -.23540176E+04 E0= -.23540176E+04  d E =-.875296E-02  mag=     2.0000
       N       E                     dE             d eps       ncg     rms          rms(c)
DAV:   1    -0.233232800528E+04    0.16486E+00   -0.91983E+00  4512   0.272E+00    0.102E+00
RMM:   2    -0.233252818390E+04   -0.20018E+00   -0.17697E+00  6655   0.668E-01    0.205E+00
RMM:   3    -0.233250538184E+04    0.22802E-01   -0.19234E-01  6484   0.238E-01    0.625E-01
RMM:   4    -0.233250275020E+04    0.26316E-02   -0.20286E-02  5921   0.557E-02    0.331E-01
RMM:   5    -0.233250294822E+04   -0.19802E-03   -0.39232E-03  5664   0.291E-02    0.377E-01
RMM:   6    -0.233250166043E+04    0.12878E-02   -0.30342E-03  5615   0.294E-02    0.246E-01
RMM:   7    -0.233250127050E+04    0.38994E-03   -0.14031E-03  5184   0.207E-02    0.145E-01
RMM:   8    -0.233250100596E+04    0.26454E-03   -0.28667E-04  3508   0.901E-03    0.375E-02
RMM:   9    -0.233250098743E+04    0.18534E-04   -0.42947E-05  2941   0.558E-03    0.167E-02
RMM:  10    -0.233250098591E+04    0.15166E-05   -0.32768E-05  2942   0.389E-03
  43 F= -.23540255E+04 E0= -.23540255E+04  d E =-.166307E-01  mag=     2.0000
       N       E                     dE             d eps       ncg     rms          rms(c)
DAV:   1    -0.233246878965E+04    0.32198E-01   -0.23804E+00  4512   0.138E+00    0.497E-01
RMM:   2    -0.233251543743E+04   -0.46648E-01   -0.42510E-01  6675   0.327E-01    0.920E-01
RMM:   3    -0.233251185260E+04    0.35848E-02   -0.44638E-02  6424   0.115E-01    0.340E-01
RMM:   4    -0.233251094200E+04    0.91060E-03   -0.48119E-03  5584   0.279E-02    0.165E-01
RMM:   5    -0.233251091477E+04    0.27231E-04   -0.10147E-03  4695   0.153E-02    0.167E-01
RMM:   6    -0.233251061754E+04    0.29723E-03   -0.77319E-04  5091   0.153E-02    0.961E-02
RMM:   7    -0.233251060766E+04    0.98736E-05   -0.27262E-04  3185   0.109E-02    0.796E-02
RMM:   8    -0.233251052401E+04    0.83651E-04   -0.68505E-05  2949   0.556E-03    0.182E-02
RMM:   9    -0.233251051820E+04    0.58144E-05   -0.12043E-05  2909   0.332E-03
  44 F= -.23540350E+04 E0= -.23540350E+04  d E =-.953893E-02  mag=     2.0000
       N       E                     dE             d eps       ncg     rms          rms(c)
DAV:   1    -0.233244414715E+04    0.66377E-01   -0.40923E+00  4512   0.181E+00    0.650E-01
RMM:   2    -0.233252411446E+04   -0.79967E-01   -0.73226E-01  6682   0.430E-01    0.119E+00
RMM:   3    -0.233251852492E+04    0.55895E-02   -0.77614E-02  6454   0.152E-01    0.455E-01
RMM:   4    -0.233251686772E+04    0.16572E-02   -0.83512E-03  5815   0.368E-02    0.218E-01
RMM:   5    -0.233251680205E+04    0.65666E-04   -0.17252E-03  5307   0.197E-02    0.219E-01
RMM:   6    -0.233251628927E+04    0.51279E-03   -0.13509E-03  5313   0.197E-02    0.126E-01
RMM:   7    -0.233251627104E+04    0.18230E-04   -0.47767E-04  3767   0.137E-02    0.105E-01
RMM:   8    -0.233251612382E+04    0.14722E-03   -0.11589E-04  3033   0.654E-03    0.235E-02
RMM:   9    -0.233251611280E+04    0.11015E-04   -0.21242E-05  2925   0.422E-03    0.958E-03
RMM:  10    -0.233251611059E+04    0.22146E-05   -0.14635E-05  2929   0.277E-03
  45 F= -.23540406E+04 E0= -.23540406E+04  d E =-.151667E-01  mag=     2.0000
       N       E                     dE             d eps       ncg     rms          rms(c)
DAV:   1    -0.233251271031E+04    0.34025E-02   -0.20432E-01  4704   0.404E-01    0.147E-01
RMM:   2    -0.233251676891E+04   -0.40586E-02   -0.36614E-02  6648   0.962E-02    0.277E-01
RMM:   3    -0.233251640232E+04    0.36659E-03   -0.38155E-03  4959   0.336E-02    0.966E-02
RMM:   4    -0.233251633026E+04    0.72062E-04   -0.40621E-04  3092   0.876E-03    0.475E-02
RMM:   5    -0.233251633028E+04   -0.28216E-07   -0.89816E-05  2959   0.578E-03
  46 F= -.23540409E+04 E0= -.23540409E+04  d E =-.153985E-01  mag=     2.0000
       N       E                     dE             d eps       ncg     rms          rms(c)
DAV:   1    -0.233249457011E+04    0.21760E-01   -0.17929E+00  4512   0.123E+00    0.388E-01
RMM:   2    -0.233252170815E+04   -0.27138E-01   -0.29269E-01  6651   0.276E-01    0.230E-01
RMM:   3    -0.233252426218E+04   -0.25540E-02   -0.29397E-02  6118   0.993E-02    0.264E-01
RMM:   4    -0.233252393327E+04    0.32891E-03   -0.31387E-03  5126   0.233E-02    0.184E-01
RMM:   5    -0.233252367418E+04    0.25909E-03   -0.88741E-04  4873   0.164E-02    0.979E-02
RMM:   6    -0.233252368583E+04   -0.11656E-04   -0.43997E-04  4126   0.120E-02    0.971E-02
RMM:   7    -0.233252357232E+04    0.11352E-03   -0.14353E-04  3134   0.756E-03    0.340E-02
RMM:   8    -0.233252356066E+04    0.11656E-04   -0.39745E-05  2925   0.537E-03    0.233E-02
RMM:   9    -0.233252355150E+04    0.91621E-05   -0.11145E-05  2914   0.267E-03
  47 F= -.23540483E+04 E0= -.23540483E+04  d E =-.742112E-02  mag=     2.0000
       N       E                     dE             d eps       ncg     rms          rms(c)
DAV:   1    -0.233247035231E+04    0.53208E-01   -0.34307E+00  4512   0.170E+00    0.539E-01
RMM:   2    -0.233252269594E+04   -0.52344E-01   -0.55964E-01  6641   0.381E-01    0.393E-01
RMM:   3    -0.233252870652E+04   -0.60106E-02   -0.57520E-02  6255   0.138E-01    0.526E-01
RMM:   4    -0.233252636197E+04    0.23446E-02   -0.61417E-03  5992   0.341E-02    0.221E-01
RMM:   5    -0.233252597137E+04    0.39061E-03   -0.15737E-03  5393   0.214E-02    0.132E-01
RMM:   6    -0.233252591151E+04    0.59858E-04   -0.99067E-04  5304   0.165E-02    0.110E-01
RMM:   7    -0.233252575593E+04    0.15558E-03   -0.24485E-04  3654   0.947E-03    0.373E-02
RMM:   8    -0.233252575584E+04    0.81229E-07   -0.65508E-05  2954   0.602E-03
  48 F= -.23540508E+04 E0= -.23540508E+04  d E =-.991067E-02  mag=     2.0000
       N       E                     dE             d eps       ncg     rms          rms(c)
DAV:   1    -0.233249073708E+04    0.35019E-01   -0.23892E+00  4512   0.144E+00    0.454E-01
RMM:   2    -0.233252798884E+04   -0.37252E-01   -0.40158E-01  6620   0.320E-01    0.281E-01
RMM:   3    -0.233253221413E+04   -0.42253E-02   -0.45219E-02  6243   0.122E-01    0.333E-01
RMM:   4    -0.233253124156E+04    0.97257E-03   -0.46109E-03  5715   0.287E-02    0.170E-01
RMM:   5    -0.233253114187E+04    0.99689E-04   -0.91022E-04  4957   0.150E-02    0.192E-01
RMM:   6    -0.233253093241E+04    0.20946E-03   -0.74054E-04  4184   0.148E-02    0.120E-01
RMM:   7    -0.233253082220E+04    0.11022E-03   -0.21780E-04  3910   0.876E-03    0.415E-02
RMM:   8    -0.233253080423E+04    0.17970E-04   -0.58819E-05  2927   0.670E-03    0.239E-02
RMM:   9    -0.233253079442E+04    0.98103E-05   -0.12718E-05  2907   0.273E-03
  49 F= -.23540558E+04 E0= -.23540558E+04  d E =-.504830E-02  mag=     2.0000
       N       E                     dE             d eps       ncg     rms          rms(c)
DAV:   1    -0.233251889236E+04    0.11912E-01   -0.75127E-01  4544   0.806E-01    0.254E-01
RMM:   2    -0.233253062208E+04   -0.11730E-01   -0.12598E-01  6610   0.179E-01    0.163E-01
RMM:   3    -0.233253196900E+04   -0.13469E-02   -0.14167E-02  5983   0.691E-02    0.197E-01
RMM:   4    -0.233253159622E+04    0.37278E-03   -0.14451E-03  3881   0.165E-02    0.925E-02
RMM:   5    -0.233253159095E+04    0.52707E-05   -0.29432E-04  4002   0.972E-03    0.120E-01
RMM:   6    -0.233253148902E+04    0.10194E-03   -0.24726E-04  3140   0.931E-03    0.581E-02
RMM:   7    -0.233253146308E+04    0.25934E-04   -0.55510E-05  3080   0.614E-03    0.172E-02
RMM:   8    -0.233253146134E+04    0.17435E-05   -0.15821E-05  2911   0.463E-03
  50 F= -.23540565E+04 E0= -.23540565E+04  d E =-.572303E-02  mag=     2.0000
       N       E                     dE             d eps       ncg     rms          rms(c)
DAV:   1    -0.233252480465E+04    0.66584E-02   -0.74664E-01  4544   0.824E-01    0.269E-01
RMM:   2    -0.233253705236E+04   -0.12248E-01   -0.12375E-01  6551   0.189E-01    0.302E-01
RMM:   3    -0.233253757528E+04   -0.52293E-03   -0.13972E-02  6004   0.692E-02    0.237E-01
RMM:   4    -0.233253703557E+04    0.53971E-03   -0.14975E-03  4762   0.178E-02    0.127E-01
RMM:   5    -0.233253697304E+04    0.62537E-04   -0.30766E-04  3382   0.105E-02    0.110E-01
RMM:   6    -0.233253687172E+04    0.10132E-03   -0.34903E-04  4640   0.117E-02    0.592E-02
RMM:   7    -0.233253684231E+04    0.29412E-04   -0.14416E-04  3100   0.867E-03    0.353E-02
RMM:   8    -0.233253682456E+04    0.17752E-04   -0.25418E-05  2945   0.472E-03    0.896E-03
RMM:   9    -0.233253682273E+04    0.18280E-05   -0.53375E-06  2897   0.284E-03
  51 F= -.23540616E+04 E0= -.23540616E+04  d E =-.512929E-02  mag=     2.0000
       N       E                     dE             d eps       ncg     rms          rms(c)
DAV:   1    -0.233252581118E+04    0.11013E-01   -0.81347E-01  4544   0.861E-01    0.279E-01
RMM:   2    -0.233253909586E+04   -0.13285E-01   -0.13452E-01  6546   0.197E-01    0.309E-01
RMM:   3    -0.233253973383E+04   -0.63797E-03   -0.15234E-02  6017   0.736E-02    0.249E-01
RMM:   4    -0.233253914271E+04    0.59112E-03   -0.16311E-03  4878   0.186E-02    0.133E-01
RMM:   5    -0.233253907153E+04    0.71178E-04   -0.33265E-04  3483   0.108E-02    0.115E-01
RMM:   6    -0.233253895241E+04    0.11912E-03   -0.38027E-04  4721   0.122E-02    0.588E-02
RMM:   7    -0.233253892754E+04    0.24870E-04   -0.15641E-04  3132   0.907E-03    0.386E-02
RMM:   8    -0.233253890613E+04    0.21409E-04   -0.28597E-05  2944   0.487E-03    0.960E-03
RMM:   9    -0.233253890407E+04    0.20655E-05   -0.61090E-06  2907   0.295E-03
  52 F= -.23540635E+04 E0= -.23540635E+04  d E =-.697305E-02  mag=     2.0000
       N       E                     dE             d eps       ncg     rms          rms(c)
DAV:   1    -0.233252782522E+04    0.11081E-01   -0.94484E-01  4528   0.924E-01    0.297E-01
RMM:   2    -0.233254428487E+04   -0.16460E-01   -0.16423E-01  6598   0.211E-01    0.372E-01
RMM:   3    -0.233254466227E+04   -0.37740E-03   -0.18240E-02  6049   0.780E-02    0.271E-01
RMM:   4    -0.233254408166E+04    0.58061E-03   -0.20050E-03  4718   0.190E-02    0.146E-01
RMM:   5    -0.233254393587E+04    0.14579E-03   -0.35472E-04  3545   0.999E-03    0.110E-01
RMM:   6    -0.233254383054E+04    0.10533E-03   -0.42203E-04  4753   0.120E-02    0.650E-02
RMM:   7    -0.233254379122E+04    0.39325E-04   -0.17442E-04  3159   0.896E-03    0.359E-02
RMM:   8    -0.233254377352E+04    0.17701E-04   -0.29683E-05  2967   0.498E-03    0.106E-02
RMM:   9    -0.233254377122E+04    0.22961E-05   -0.63408E-06  2905   0.305E-03
  53 F= -.23540682E+04 E0= -.23540682E+04  d E =-.469953E-02  mag=     2.0000
       N       E                     dE             d eps       ncg     rms          rms(c)
DAV:   1    -0.233251089102E+04    0.32882E-01   -0.20534E+00  4512   0.136E+00    0.438E-01
RMM:   2    -0.233254655467E+04   -0.35664E-01   -0.35634E-01  6580   0.311E-01    0.546E-01
RMM:   3    -0.233254748184E+04   -0.92717E-03   -0.39826E-02  6255   0.116E-01    0.403E-01
RMM:   4    -0.233254618740E+04    0.12944E-02   -0.43385E-03  5538   0.279E-02    0.214E-01
RMM:   5    -0.233254587131E+04    0.31609E-03   -0.78524E-04  4709   0.139E-02    0.161E-01
RMM:   6    -0.233254564360E+04    0.22770E-03   -0.88856E-04  5324   0.163E-02    0.961E-02
RMM:   7    -0.233254555692E+04    0.86688E-04   -0.37219E-04  3800   0.124E-02    0.531E-02
RMM:   8    -0.233254551784E+04    0.39072E-04   -0.62432E-05  3093   0.581E-03    0.153E-02
RMM:   9    -0.233254551269E+04    0.51528E-05   -0.11762E-05  2931   0.391E-03
  54 F= -.23540697E+04 E0= -.23540697E+04  d E =-.620001E-02  mag=     2.0000
       N       E                     dE             d eps       ncg     rms          rms(c)
DAV:   1    -0.233254350456E+04    0.20133E-02   -0.12967E-01  4672   0.342E-01    0.110E-01
RMM:   2    -0.233254575963E+04   -0.22551E-02   -0.22385E-02  6566   0.785E-02    0.141E-01
RMM:   3    -0.233254579502E+04   -0.35390E-04   -0.24954E-03  4097   0.283E-02    0.997E-02
RMM:   4    -0.233254571930E+04    0.75720E-04   -0.27155E-04  3005   0.807E-03    0.546E-02
RMM:   5    -0.233254569852E+04    0.20780E-04   -0.49103E-05  2937   0.451E-03    0.397E-02
RMM:   6    -0.233254568353E+04    0.14991E-04   -0.59891E-05  3080   0.510E-03    0.210E-02
RMM:   7    -0.233254568086E+04    0.26701E-05   -0.22352E-05  2915   0.444E-03
  55 F= -.23540699E+04 E0= -.23540699E+04  d E =-.642815E-02  mag=     2.0000
       N       E                     dE             d eps       ncg     rms          rms(c)
DAV:   1    -0.233253425940E+04    0.11424E-01   -0.11975E+00  4528   0.108E+00    0.329E-01
RMM:   2    -0.233255018079E+04   -0.15921E-01   -0.16117E-01  6469   0.227E-01    0.334E-01
RMM:   3    -0.233255096684E+04   -0.78605E-03   -0.17318E-02  6117   0.840E-02    0.272E-01
RMM:   4    -0.233255007830E+04    0.88854E-03   -0.18897E-03  5195   0.215E-02    0.145E-01
RMM:   5    -0.233255006017E+04    0.18130E-04   -0.47577E-04  3971   0.124E-02    0.153E-01
RMM:   6    -0.233254980125E+04    0.25893E-03   -0.56513E-04  4967   0.148E-02    0.289E-02
RMM:   7    -0.233254980237E+04   -0.11266E-05   -0.87417E-05  3121   0.876E-03
  56 F= -.23540739E+04 E0= -.23540739E+04  d E =-.395289E-02  mag=     2.0000
       N       E                     dE             d eps       ncg     rms          rms(c)
DAV:   1    -0.233254585865E+04    0.39426E-02   -0.34121E-01  4544   0.576E-01    0.181E-01
RMM:   2    -0.233255048005E+04   -0.46214E-02   -0.46546E-02  6469   0.123E-01    0.190E-01
RMM:   3    -0.233255064245E+04   -0.16240E-03   -0.49866E-03  5571   0.458E-02    0.145E-01
RMM:   4    -0.233255039447E+04    0.24798E-03   -0.54769E-04  3530   0.119E-02    0.782E-02
RMM:   5    -0.233255039015E+04    0.43215E-05   -0.13499E-04  3026   0.755E-03    0.817E-02
RMM:   6    -0.233255031647E+04    0.73680E-04   -0.15848E-04  3914   0.880E-03    0.161E-02
RMM:   7    -0.233255031634E+04    0.12951E-06   -0.27920E-05  2989   0.568E-03
  57 F= -.23540743E+04 E0= -.23540743E+04  d E =-.437656E-02  mag=     2.0000
       N       E                     dE             d eps       ncg     rms          rms(c)
DAV:   1    -0.233254025473E+04    0.10062E-01   -0.13093E+00  4512   0.112E+00    0.315E-01
RMM:   2    -0.233255629052E+04   -0.16036E-01   -0.15290E-01  6577   0.228E-01    0.412E-01
RMM:   3    -0.233255586274E+04    0.42778E-03   -0.15746E-02  6298   0.812E-02    0.241E-01
RMM:   4    -0.233255535285E+04    0.50988E-03   -0.18938E-03  5144   0.201E-02    0.156E-01
RMM:   5    -0.233255523653E+04    0.11632E-03   -0.43461E-04  3499   0.112E-02    0.133E-01
RMM:   6    -0.233255513113E+04    0.10540E-03   -0.58690E-04  4909   0.142E-02    0.814E-02
RMM:   7    -0.233255504865E+04    0.82477E-04   -0.19904E-04  3262   0.105E-02    0.290E-02
RMM:   8    -0.233255503658E+04    0.12068E-04   -0.18619E-05  2951   0.403E-03    0.134E-02
RMM:   9    -0.233255503332E+04    0.32649E-05   -0.89074E-06  2908   0.260E-03
  58 F= -.23540787E+04 E0= -.23540787E+04  d E =-.436772E-02  mag=     2.0000
       N       E                     dE             d eps       ncg     rms          rms(c)
DAV:   1    -0.233249702818E+04    0.58008E-01   -0.53558E+00  4512   0.226E+00    0.631E-01
RMM:   2    -0.233256205215E+04   -0.65024E-01   -0.62381E-01  6592   0.458E-01    0.812E-01
RMM:   3    -0.233256100673E+04    0.10454E-02   -0.64579E-02  6417   0.162E-01    0.495E-01
RMM:   4    -0.233255882828E+04    0.21785E-02   -0.76864E-03  5878   0.405E-02    0.316E-01
RMM:   5    -0.233255833972E+04    0.48856E-03   -0.18001E-03  5164   0.207E-02    0.269E-01
RMM:   6    -0.233255782707E+04    0.51265E-03   -0.24078E-03  5167   0.276E-02    0.151E-01
RMM:   7    -0.233255755403E+04    0.27304E-03   -0.76127E-04  4517   0.199E-02    0.602E-02
RMM:   8    -0.233255749834E+04    0.55689E-04   -0.69398E-05  3023   0.534E-03    0.267E-02
RMM:   9    -0.233255748397E+04    0.14369E-04   -0.34768E-05  2957   0.447E-03    0.106E-02
RMM:  10    -0.233255748216E+04    0.18142E-05   -0.14630E-05  2953   0.330E-03
  59 F= -.23540804E+04 E0= -.23540804E+04  d E =-.611620E-02  mag=     2.0000
       N       E                     dE             d eps       ncg     rms          rms(c)
DAV:   1    -0.233255127493E+04    0.62090E-02   -0.57411E-01  4544   0.739E-01    0.208E-01
RMM:   2    -0.233255835388E+04   -0.70790E-02   -0.67215E-02  6578   0.152E-01    0.276E-01
RMM:   3    -0.233255810385E+04    0.25003E-03   -0.68500E-03  6113   0.531E-02    0.160E-01
RMM:   4    -0.233255790190E+04    0.20196E-03   -0.85578E-04  3857   0.134E-02    0.108E-01
RMM:   5    -0.233255783206E+04    0.69838E-04   -0.19849E-04  3073   0.812E-03    0.853E-02
RMM:   6    -0.233255780251E+04    0.29546E-04   -0.26235E-04  4186   0.976E-03    0.630E-02
RMM:   7    -0.233255775063E+04    0.51882E-04   -0.10633E-04  3039   0.789E-03    0.182E-02
RMM:   8    -0.233255774596E+04    0.46677E-05   -0.10445E-05  2934   0.341E-03
  60 F= -.23540809E+04 E0= -.23540809E+04  d E =-.660853E-02  mag=     2.0000
       N       E                     dE             d eps       ncg     rms          rms(c)
DAV:   1    -0.233255352112E+04    0.42295E-02   -0.72618E-01  4528   0.835E-01    0.237E-01
RMM:   2    -0.233256301961E+04   -0.94985E-02   -0.86238E-02  6616   0.171E-01    0.362E-01
RMM:   3    -0.233256220537E+04    0.81424E-03   -0.86233E-03  6211   0.590E-02    0.173E-01
RMM:   4    -0.233256201948E+04    0.18589E-03   -0.11117E-03  4104   0.150E-02    0.130E-01
RMM:   5    -0.233256189512E+04    0.12437E-03   -0.26229E-04  3162   0.899E-03    0.898E-02
RMM:   6    -0.233256187028E+04    0.24842E-04   -0.32189E-04  4520   0.109E-02    0.716E-02
RMM:   7    -0.233256180038E+04    0.69892E-04   -0.12054E-04  3061   0.865E-03    0.178E-02
RMM:   8    -0.233256179630E+04    0.40801E-05   -0.12662E-05  2946   0.345E-03
  61 F= -.23540845E+04 E0= -.23540845E+04  d E =-.361598E-02  mag=     2.0000
       N       E                     dE             d eps       ncg     rms          rms(c)
DAV:   1    -0.233250979336E+04    0.52007E-01   -0.49442E+00  4512   0.218E+00    0.621E-01
RMM:   2    -0.233257468014E+04   -0.64887E-01   -0.58995E-01  6595   0.445E-01    0.945E-01
RMM:   3    -0.233256936392E+04    0.53162E-02   -0.59863E-02  6415   0.153E-01    0.454E-01
RMM:   4    -0.233256809141E+04    0.12725E-02   -0.75649E-03  5612   0.388E-02    0.343E-01
RMM:   5    -0.233256721903E+04    0.87238E-03   -0.17978E-03  5127   0.205E-02    0.234E-01
RMM:   6    -0.233256693603E+04    0.28300E-03   -0.21125E-03  5128   0.260E-02    0.161E-01
RMM:   7    -0.233256659188E+04    0.34415E-03   -0.69857E-04  4330   0.197E-02    0.488E-02
RMM:   8    -0.233256655891E+04    0.32969E-04   -0.63650E-05  3082   0.492E-03    0.244E-02
RMM:   9    -0.233256654985E+04    0.90534E-05   -0.24121E-05  2937   0.417E-03
  62 F= -.23540881E+04 E0= -.23540881E+04  d E =-.724769E-02  mag=     2.0000
       N       E                     dE             d eps       ncg     rms          rms(c)
DAV:   1    -0.233255766869E+04    0.88902E-02   -0.10374E+00  4528   0.100E+00    0.294E-01
RMM:   2    -0.233257189183E+04   -0.14223E-01   -0.12997E-01  6581   0.207E-01    0.419E-01
RMM:   3    -0.233257074568E+04    0.11462E-02   -0.12906E-02  6260   0.722E-02    0.185E-01
RMM:   4    -0.233257037958E+04    0.36610E-03   -0.14661E-03  4879   0.180E-02    0.130E-01
RMM:   5    -0.233257036080E+04    0.18775E-04   -0.33254E-04  3227   0.106E-02    0.132E-01
RMM:   6    -0.233257021246E+04    0.14835E-03   -0.42467E-04  4705   0.129E-02    0.527E-02
RMM:   7    -0.233257018746E+04    0.24995E-04   -0.12414E-04  3083   0.952E-03    0.306E-02
RMM:   8    -0.233257017396E+04    0.13504E-04   -0.16308E-05  2921   0.347E-03    0.110E-02
RMM:   9    -0.233257017223E+04    0.17279E-05   -0.63035E-06  2887   0.231E-03
  63 F= -.23540913E+04 E0= -.23540913E+04  d E =-.312899E-02  mag=     2.0000
       N       E                     dE             d eps       ncg     rms          rms(c)
DAV:   1    -0.233255554674E+04    0.14627E-01   -0.13657E+00  4512   0.115E+00    0.338E-01
RMM:   2    -0.233257423856E+04   -0.18692E-01   -0.17099E-01  6579   0.237E-01    0.479E-01
RMM:   3    -0.233257275115E+04    0.14874E-02   -0.17067E-02  6303   0.829E-02    0.212E-01
RMM:   4    -0.233257226540E+04    0.48575E-03   -0.19220E-03  5068   0.206E-02    0.149E-01
RMM:   5    -0.233257224073E+04    0.24668E-04   -0.43931E-04  3420   0.119E-02    0.152E-01
RMM:   6    -0.233257203960E+04    0.20113E-03   -0.55257E-04  4845   0.146E-02    0.579E-02
RMM:   7    -0.233257201099E+04    0.28610E-04   -0.15804E-04  3184   0.107E-02    0.356E-02
RMM:   8    -0.233257199252E+04    0.18478E-04   -0.21437E-05  2920   0.381E-03    0.125E-02
RMM:   9    -0.233257199011E+04    0.24055E-05   -0.82273E-06  2902   0.253E-03
  64 F= -.23540925E+04 E0= -.23540925E+04  d E =-.438611E-02  mag=     2.0000
       N       E                     dE             d eps       ncg     rms          rms(c)
DAV:   1    -0.233256072938E+04    0.11263E-01   -0.12637E+00  4512   0.108E+00    0.320E-01
RMM:   2    -0.233257715039E+04   -0.16421E-01   -0.15689E-01  6566   0.219E-01    0.383E-01
RMM:   3    -0.233257685554E+04    0.29485E-03   -0.16236E-02  6222   0.797E-02    0.213E-01
RMM:   4    -0.233257621792E+04    0.63762E-03   -0.16521E-03  4951   0.195E-02    0.114E-01
RMM:   5    -0.233257634981E+04   -0.13189E-03   -0.46536E-04  3915   0.118E-02    0.183E-01
RMM:   6    -0.233257604701E+04    0.30280E-03   -0.48117E-04  4767   0.134E-02    0.335E-02
RMM:   7    -0.233257605071E+04   -0.36991E-05   -0.76644E-05  3017   0.755E-03
  65 F= -.23540964E+04 E0= -.23540964E+04  d E =-.383203E-02  mag=     2.0000
       N       E                     dE             d eps       ncg     rms          rms(c)
DAV:   1    -0.233255076204E+04    0.25285E-01   -0.22346E+00  4512   0.144E+00    0.431E-01
RMM:   2    -0.233258008266E+04   -0.29321E-01   -0.27917E-01  6576   0.293E-01    0.522E-01
RMM:   3    -0.233257937686E+04    0.70580E-03   -0.28881E-02  6325   0.106E-01    0.284E-01
RMM:   4    -0.233257824167E+04    0.11352E-02   -0.29369E-03  5309   0.259E-02    0.148E-01
RMM:   5    -0.233257850929E+04   -0.26762E-03   -0.84539E-04  4754   0.153E-02    0.249E-01
RMM:   6    -0.233257795303E+04    0.55626E-03   -0.82007E-04  5212   0.165E-02    0.445E-02
RMM:   7    -0.233257795553E+04   -0.24963E-05   -0.12190E-04  3163   0.895E-03    0.345E-02
RMM:   8    -0.233257794128E+04    0.14243E-04   -0.35480E-05  2931   0.448E-03    0.174E-02
RMM:   9    -0.233257793667E+04    0.46186E-05   -0.11836E-05  2918   0.297E-03
  66 F= -.23540980E+04 E0= -.23540980E+04  d E =-.541965E-02  mag=     2.0000
       N       E                     dE             d eps       ncg     rms          rms(c)
DAV:   1    -0.233256647644E+04    0.11465E-01   -0.11392E+00  4528   0.102E+00    0.297E-01
RMM:   2    -0.233258129344E+04   -0.14817E-01   -0.14715E-01  6577   0.206E-01    0.303E-01
RMM:   3    -0.233258185169E+04   -0.55825E-03   -0.15754E-02  6224   0.765E-02    0.207E-01
RMM:   4    -0.233258120805E+04    0.64364E-03   -0.15396E-03  5070   0.187E-02    0.999E-02
RMM:   5    -0.233258110395E+04    0.10409E-03   -0.54801E-04  4685   0.137E-02    0.616E-02
RMM:   6    -0.233258109296E+04    0.10997E-04   -0.23192E-04  3474   0.102E-02    0.477E-02
RMM:   7    -0.233258106192E+04    0.31039E-04   -0.43298E-05  2969   0.554E-03    0.121E-02
RMM:   8    -0.233258105993E+04    0.19902E-05   -0.96442E-06  2926   0.336E-03
  67 F= -.23541009E+04 E0= -.23541009E+04  d E =-.291788E-02  mag=     2.0000
       N       E                     dE             d eps       ncg     rms          rms(c)
DAV:   1    -0.233256106651E+04    0.19995E-01   -0.16695E+00  4512   0.123E+00    0.360E-01
RMM:   2    -0.233258290309E+04   -0.21837E-01   -0.21627E-01  6563   0.250E-01    0.374E-01
RMM:   3    -0.233258364967E+04   -0.74659E-03   -0.23264E-02  6274   0.917E-02    0.255E-01
RMM:   4    -0.233258272613E+04    0.92355E-03   -0.22928E-03  5192   0.226E-02    0.136E-01
RMM:   5    -0.233258285844E+04   -0.13231E-03   -0.62161E-04  4239   0.128E-02    0.205E-01
RMM:   6    -0.233258248743E+04    0.37101E-03   -0.64898E-04  4956   0.147E-02    0.467E-02
RMM:   7    -0.233258249403E+04   -0.66050E-05   -0.13615E-04  3187   0.848E-03    0.416E-02
RMM:   8    -0.233258246957E+04    0.24465E-04   -0.38836E-05  2938   0.490E-03    0.147E-02
RMM:   9    -0.233258246585E+04    0.37213E-05   -0.10351E-05  2916   0.286E-03
  68 F= -.23541020E+04 E0= -.23541020E+04  d E =-.408036E-02  mag=     2.0000
       N       E                     dE             d eps       ncg     rms          rms(c)
DAV:   1    -0.233257686674E+04    0.56028E-02   -0.57183E-01  4560   0.726E-01    0.225E-01
RMM:   2    -0.233258525381E+04   -0.83871E-02   -0.82895E-02  6544   0.155E-01    0.261E-01
RMM:   3    -0.233258561051E+04   -0.35670E-03   -0.90950E-03  6128   0.593E-02    0.207E-01
RMM:   4    -0.233258524855E+04    0.36196E-03   -0.97710E-04  4111   0.149E-02    0.104E-01
RMM:   5    -0.233258520471E+04    0.43833E-04   -0.25445E-04  3193   0.874E-03    0.939E-02
RMM:   6    -0.233258509487E+04    0.10985E-03   -0.26890E-04  4122   0.106E-02    0.208E-02
RMM:   7    -0.233258509504E+04   -0.17203E-06   -0.40701E-05  3018   0.643E-03
  69 F= -.23541044E+04 E0= -.23541044E+04  d E =-.235389E-02  mag=     2.0000
       N       E                     dE             d eps       ncg     rms          rms(c)
DAV:   1    -0.233257484900E+04    0.10246E-01   -0.79376E-01  4544   0.856E-01    0.267E-01
RMM:   2    -0.233258649698E+04   -0.11648E-01   -0.11557E-01  6564   0.183E-01    0.302E-01
RMM:   3    -0.233258702723E+04   -0.53025E-03   -0.12707E-02  6230   0.704E-02    0.244E-01
RMM:   4    -0.233258651601E+04    0.51122E-03   -0.13620E-03  4754   0.176E-02    0.125E-01
RMM:   5    -0.233258645404E+04    0.61975E-04   -0.35079E-04  3383   0.986E-03    0.111E-01
RMM:   6    -0.233258630360E+04    0.15044E-03   -0.35980E-04  4324   0.120E-02    0.231E-02
RMM:   7    -0.233258630009E+04    0.35094E-05   -0.48034E-05  3044   0.705E-03
  70 F= -.23541053E+04 E0= -.23541053E+04  d E =-.323581E-02  mag=     2.0000
       N       E                     dE             d eps       ncg     rms          rms(c)
DAV:   1    -0.233257815400E+04    0.81496E-02   -0.79476E-01  4528   0.867E-01    0.259E-01
RMM:   2    -0.233258930453E+04   -0.11151E-01   -0.10771E-01  6583   0.182E-01    0.337E-01
RMM:   3    -0.233258931511E+04   -0.10587E-04   -0.11670E-02  6258   0.683E-02    0.222E-01
RMM:   4    -0.233258893455E+04    0.38056E-03   -0.13486E-03  4668   0.169E-02    0.126E-01
RMM:   5    -0.233258882759E+04    0.10697E-03   -0.31865E-04  3306   0.975E-03    0.985E-02
RMM:   6    -0.233258870176E+04    0.12583E-03   -0.35571E-04  4372   0.118E-02    0.219E-02
RMM:   7    -0.233258869816E+04    0.35951E-05   -0.45207E-05  3079   0.783E-03
  71 F= -.23541073E+04 E0= -.23541073E+04  d E =-.201717E-02  mag=     2.0000
       N       E                     dE             d eps       ncg     rms          rms(c)
DAV:   1    -0.233258552779E+04    0.31740E-02   -0.27389E-01  4608   0.509E-01    0.153E-01
RMM:   2    -0.233258937156E+04   -0.38438E-02   -0.37297E-02  6562   0.108E-01    0.195E-01
RMM:   3    -0.233258938724E+04   -0.15671E-04   -0.40334E-03  5607   0.406E-02    0.129E-01
RMM:   4    -0.233258925726E+04    0.12997E-03   -0.45729E-04  3215   0.103E-02    0.745E-02
RMM:   5    -0.233258922276E+04    0.34505E-04   -0.11100E-04  2980   0.660E-03    0.586E-02
RMM:   6    -0.233258917911E+04    0.43645E-04   -0.12674E-04  3617   0.740E-03    0.165E-02
RMM:   7    -0.233258918024E+04   -0.11291E-05   -0.23502E-05  2968   0.573E-03
  72 F= -.23541075E+04 E0= -.23541075E+04  d E =-.227450E-02  mag=     2.0000
       N       E                     dE             d eps       ncg     rms          rms(c)
DAV:   1    -0.233258081704E+04    0.83621E-02   -0.82243E-01  4528   0.905E-01    0.257E-01
RMM:   2    -0.233259210933E+04   -0.11292E-01   -0.10935E-01  6641   0.189E-01    0.313E-01
RMM:   3    -0.233259205265E+04    0.56681E-04   -0.11569E-02  6279   0.680E-02    0.189E-01
RMM:   4    -0.233259168421E+04    0.36844E-03   -0.12684E-03  4906   0.167E-02    0.118E-01
RMM:   5    -0.233259163590E+04    0.48318E-04   -0.26403E-04  3108   0.917E-03    0.106E-01
RMM:   6    -0.233259150211E+04    0.13378E-03   -0.34472E-04  4551   0.117E-02    0.239E-02
RMM:   7    -0.233259150387E+04   -0.17615E-05   -0.56838E-05  3062   0.790E-03
  73 F= -.23541096E+04 E0= -.23541096E+04  d E =-.204057E-02  mag=     2.0000
       N       E                     dE             d eps       ncg     rms          rms(c)
DAV:   1    -0.233257571462E+04    0.15787E-01   -0.12449E+00  4512   0.111E+00    0.317E-01
RMM:   2    -0.233259281261E+04   -0.17098E-01   -0.16592E-01  6611   0.233E-01    0.382E-01
RMM:   3    -0.233259274869E+04    0.63918E-04   -0.17598E-02  6353   0.847E-02    0.230E-01
RMM:   4    -0.233259217468E+04    0.57401E-03   -0.19206E-03  5305   0.204E-02    0.138E-01
RMM:   5    -0.233259213851E+04    0.36174E-04   -0.39857E-04  3385   0.110E-02    0.137E-01
RMM:   6    -0.233259191913E+04    0.21938E-03   -0.51271E-04  4801   0.139E-02    0.301E-02
RMM:   7    -0.233259191983E+04   -0.69904E-06   -0.84042E-05  3182   0.917E-03
  74 F= -.23541096E+04 E0= -.23541096E+04  d E =-.210473E-02  mag=     2.0000
       N       E                     dE             d eps       ncg     rms          rms(c)
DAV:   1    -0.233258916266E+04    0.27565E-02   -0.22714E-01  4544   0.475E-01    0.131E-01
RMM:   2    -0.233259221498E+04   -0.30523E-02   -0.29607E-02  6594   0.987E-02    0.163E-01
RMM:   3    -0.233259222678E+04   -0.11798E-04   -0.31683E-03  5306   0.349E-02    0.107E-01
RMM:   4    -0.233259212609E+04    0.10069E-03   -0.35323E-04  3168   0.915E-03    0.670E-02
RMM:   5    -0.233259209770E+04    0.28388E-04   -0.80453E-05  2948   0.583E-03    0.504E-02
RMM:   6    -0.233259206628E+04    0.31424E-04   -0.10679E-04  3500   0.684E-03    0.189E-02
RMM:   7    -0.233259206591E+04    0.36610E-06   -0.26503E-05  2946   0.550E-03
  75 F= -.23541099E+04 E0= -.23541099E+04  d E =-.240113E-02  mag=     2.0000
       N       E                     dE             d eps       ncg     rms          rms(c)
DAV:   1    -0.233258404328E+04    0.80230E-02   -0.72375E-01  4544   0.859E-01    0.244E-01
RMM:   2    -0.233259448391E+04   -0.10441E-01   -0.10274E-01  6566   0.180E-01    0.267E-01
RMM:   3    -0.233259466588E+04   -0.18198E-03   -0.10966E-02  6173   0.664E-02    0.164E-01
RMM:   4    -0.233259426953E+04    0.39635E-03   -0.10842E-03  4713   0.158E-02    0.794E-02
RMM:   5    -0.233259427860E+04   -0.90696E-05   -0.29384E-04  4087   0.106E-02    0.109E-01
RMM:   6    -0.233259418713E+04    0.91468E-04   -0.17746E-04  3253   0.864E-03    0.493E-02
[...]
RMM:   3    -0.233263750583E+04    0.14684E-04   -0.81887E-05  2920   0.718E-03    0.249E-02
RMM:   4    -0.233263750057E+04    0.52633E-05   -0.13559E-05  2941   0.298E-03
 264 F= -.23541366E+04 E0= -.23541366E+04  d E =-.221929E-04  mag=     2.0000
       N       E                     dE             d eps       ncg     rms          rms(c)
DAV:   1    -0.233263745100E+04    0.54833E-04   -0.29689E-03  4432   0.480E-02    0.194E-02
RMM:   2    -0.233263749847E+04   -0.47471E-04   -0.25001E-04  3984   0.106E-02    0.501E-02
RMM:   3    -0.233263747237E+04    0.26107E-04   -0.35062E-05  2754   0.551E-03    0.114E-02
RMM:   4    -0.233263747253E+04   -0.16289E-06   -0.67320E-06  2487   0.208E-03
 265 F= -.23541366E+04 E0= -.23541366E+04  d E =-.340989E-04  mag=     2.0000
       N       E                     dE             d eps       ncg     rms          rms(c)
DAV:   1    -0.233263745737E+04    0.14996E-04   -0.31089E-04  4320   0.155E-02    0.701E-03
RMM:   2    -0.233263745936E+04   -0.19888E-05   -0.24260E-05  2525   0.357E-03
 266 F= -.23541366E+04 E0= -.23541366E+04  d E =-.341351E-04  mag=     2.0000
       N       E                     dE             d eps       ncg     rms          rms(c)
DAV:   1    -0.233263748886E+04   -0.31494E-04   -0.66507E-04  4176   0.220E-02    0.703E-03
RMM:   2    -0.233263749434E+04   -0.54782E-05   -0.52529E-05  2612   0.523E-03
 267 F= -.23541367E+04 E0= -.23541367E+04  d E =-.150241E-04  mag=     2.0000
       N       E                     dE             d eps       ncg     rms          rms(c)
DAV:   1    -0.233263753896E+04   -0.50092E-04   -0.54090E-03  4464   0.624E-02    0.231E-02
RMM:   2    -0.233263758991E+04   -0.50953E-04   -0.45570E-04  4726   0.140E-02    0.331E-02
RMM:   3    -0.233263758486E+04    0.50501E-05   -0.52165E-05  2881   0.613E-03
 268 F= -.23541367E+04 E0= -.23541367E+04  d E =-.485527E-04  mag=     2.0000
       N       E                     dE             d eps       ncg     rms          rms(c)
DAV:   1    -0.233263754941E+04    0.40499E-04   -0.21371E-02  4512   0.124E-01    0.479E-02
RMM:   2    -0.233263774603E+04   -0.19662E-03   -0.17802E-03  6075   0.253E-02    0.583E-02
RMM:   3    -0.233263772327E+04    0.22766E-04   -0.18647E-04  2944   0.925E-03    0.324E-02
RMM:   4    -0.233263771185E+04    0.11416E-04   -0.24888E-05  2969   0.380E-03    0.216E-02
RMM:   5    -0.233263771592E+04   -0.40673E-05   -0.17706E-05  2855   0.275E-03
 269 F= -.23541367E+04 E0= -.23541367E+04  d E =-.656840E-04  mag=     2.0000
       N       E                     dE             d eps       ncg     rms          rms(c)
DAV:   1    -0.233263774354E+04   -0.31693E-04   -0.11874E-03  4520   0.292E-02    0.110E-02
RMM:   2    -0.233263775473E+04   -0.11188E-04   -0.10463E-04  3168   0.656E-03    0.126E-02
RMM:   3    -0.233263775412E+04    0.60868E-06   -0.14626E-05  2644   0.406E-03
 270 F= -.23541367E+04 E0= -.23541367E+04  d E =-.131796E-04  mag=     2.0000
       N       E                     dE             d eps       ncg     rms          rms(c)
DAV:   1    -0.233263779402E+04   -0.39285E-04   -0.11324E-02  4512   0.877E-02    0.337E-02
RMM:   2    -0.233263790682E+04   -0.11280E-03   -0.93172E-04  5517   0.174E-02    0.574E-02
RMM:   3    -0.233263788476E+04    0.22059E-04   -0.10007E-04  2917   0.678E-03    0.248E-02
RMM:   4    -0.233263788323E+04    0.15296E-05   -0.17265E-05  2903   0.270E-03
 271 F= -.23541368E+04 E0= -.23541368E+04  d E =-.672518E-04  mag=     2.0000
       N       E                     dE             d eps       ncg     rms          rms(c)
DAV:   1    -0.233263774847E+04    0.13629E-03   -0.44916E-02  4512   0.175E-01    0.625E-02
RMM:   2    -0.233263811039E+04   -0.36192E-03   -0.35526E-03  6253   0.334E-02    0.704E-02
RMM:   3    -0.233263812734E+04   -0.16950E-04   -0.40991E-04  2975   0.132E-02    0.624E-02
RMM:   4    -0.233263809452E+04    0.32817E-04   -0.50385E-05  2953   0.475E-03    0.245E-02
RMM:   5    -0.233263810462E+04   -0.10096E-04   -0.31493E-05  2928   0.351E-03    0.355E-02
RMM:   6    -0.233263808823E+04    0.16382E-04   -0.22650E-05  2897   0.368E-03    0.518E-03
RMM:   7    -0.233263808818E+04    0.51805E-07   -0.37670E-06  2648   0.206E-03
 272 F= -.23541368E+04 E0= -.23541368E+04  d E =-.122296E-03  mag=     2.0000
       N       E                     dE             d eps       ncg     rms          rms(c)
DAV:   1    -0.233263696788E+04    0.11204E-02   -0.18065E-01  4512   0.350E-01    0.119E-01
RMM:   2    -0.233263847195E+04   -0.15041E-02   -0.14468E-02  6335   0.679E-02    0.137E-01
RMM:   3    -0.233263847167E+04    0.28725E-06   -0.14791E-03  4095   0.242E-02    0.105E-01
RMM:   4    -0.233263838447E+04    0.87195E-04   -0.19720E-04  3096   0.797E-03    0.618E-02
RMM:   5    -0.233263837432E+04    0.10148E-04   -0.93655E-05  2999   0.597E-03    0.523E-02
RMM:   6    -0.233263834367E+04    0.30652E-04   -0.66127E-05  3176   0.573E-03    0.912E-03
RMM:   7    -0.233263834344E+04    0.22857E-06   -0.87291E-06  2905   0.392E-03
 273 F= -.23541368E+04 E0= -.23541368E+04  d E =-.783503E-04  mag=     2.0000
       N       E                     dE             d eps       ncg     rms          rms(c)
DAV:   1    -0.233263786831E+04    0.47536E-03   -0.49902E-02  4512   0.184E-01    0.618E-02
RMM:   2    -0.233263827290E+04   -0.40459E-03   -0.39280E-03  6189   0.351E-02    0.716E-02
RMM:   3    -0.233263827339E+04   -0.48574E-06   -0.39905E-04  3060   0.127E-02    0.547E-02
RMM:   4    -0.233263824841E+04    0.24985E-04   -0.52794E-05  2962   0.462E-03    0.315E-02
RMM:   5    -0.233263824641E+04    0.19919E-05   -0.27360E-05  2823   0.333E-03
 274 F= -.23541369E+04 E0= -.23541368E+04  d E =-.138164E-03  mag=     2.0000
       N       E                     dE             d eps       ncg     rms          rms(c)
DAV:   1    -0.233263812704E+04    0.12137E-03   -0.68845E-03  4464   0.691E-02    0.250E-02
RMM:   2    -0.233263818735E+04   -0.60310E-04   -0.56662E-04  4870   0.147E-02    0.281E-02
RMM:   3    -0.233263818600E+04    0.13414E-05   -0.70814E-05  2914   0.616E-03
 275 F= -.23541368E+04 E0= -.23541368E+04  d E =-.137531E-03  mag=     2.0000
       N       E                     dE             d eps       ncg     rms          rms(c)
DAV:   1    -0.233263824875E+04   -0.61407E-04   -0.73135E-03  4432   0.696E-02    0.257E-02
RMM:   2    -0.233263833185E+04   -0.83100E-04   -0.59562E-04  5073   0.143E-02    0.582E-02
RMM:   3    -0.233263830594E+04    0.25917E-04   -0.74341E-05  2902   0.587E-03    0.158E-02
RMM:   4    -0.233263830502E+04    0.91722E-06   -0.10119E-05  2519   0.225E-03
 276 F= -.23541369E+04 E0= -.23541369E+04  d E =-.582589E-04  mag=     2.0000
       N       E                     dE             d eps       ncg     rms          rms(c)
DAV:   1    -0.233263809185E+04    0.21409E-03   -0.65066E-02  4512   0.208E-01    0.735E-02
RMM:   2    -0.233263861259E+04   -0.52075E-03   -0.53071E-03  6335   0.406E-02    0.674E-02
RMM:   3    -0.233263866068E+04   -0.48089E-04   -0.56499E-04  3138   0.152E-02    0.741E-02
RMM:   4    -0.233263861104E+04    0.49637E-04   -0.74292E-05  2955   0.563E-03    0.365E-02
RMM:   5    -0.233263861559E+04   -0.45453E-05   -0.41063E-05  2919   0.401E-03
 277 F= -.23541370E+04 E0= -.23541370E+04  d E =-.186769E-03  mag=     2.0000
       N       E                     dE             d eps       ncg     rms          rms(c)
DAV:   1    -0.233263687434E+04    0.17367E-02   -0.25885E-01  4512   0.415E-01    0.143E-01
RMM:   2    -0.233263898538E+04   -0.21110E-02   -0.21204E-02  6393   0.830E-02    0.138E-01
RMM:   3    -0.233263912733E+04   -0.14195E-03   -0.22730E-03  4696   0.294E-02    0.133E-01
RMM:   4    -0.233263895568E+04    0.17165E-03   -0.27516E-04  3215   0.942E-03    0.715E-02
RMM:   5    -0.233263896796E+04   -0.12279E-04   -0.14133E-04  3091   0.720E-03    0.728E-02
RMM:   6    -0.233263891010E+04    0.57854E-04   -0.98122E-05  3317   0.677E-03    0.107E-02
RMM:   7    -0.233263890882E+04    0.12820E-05   -0.11732E-05  2932   0.433E-03
 278 F= -.23541370E+04 E0= -.23541370E+04  d E =-.116834E-03  mag=     2.0000
       N       E                     dE             d eps       ncg     rms          rms(c)
DAV:   1    -0.233263826873E+04    0.64137E-03   -0.68848E-02  4512   0.214E-01    0.728E-02
RMM:   2    -0.233263882147E+04   -0.55274E-03   -0.55648E-03  6294   0.414E-02    0.706E-02
RMM:   3    -0.233263885708E+04   -0.35611E-04   -0.58531E-04  3169   0.150E-02    0.694E-02
RMM:   4    -0.233263881167E+04    0.45408E-04   -0.74273E-05  2961   0.553E-03    0.383E-02
RMM:   5    -0.233263881090E+04    0.77210E-06   -0.37815E-05  2878   0.384E-03
 279 F= -.23541371E+04 E0= -.23541371E+04  d E =-.205153E-03  mag=     2.0000
       N       E                     dE             d eps       ncg     rms          rms(c)
DAV:   1    -0.233263867507E+04    0.13660E-03   -0.74663E-03  4480   0.713E-02    0.266E-02
RMM:   2    -0.233263874162E+04   -0.66551E-04   -0.64010E-04  5086   0.153E-02    0.278E-02
RMM:   3    -0.233263874147E+04    0.14580E-06   -0.79863E-05  2915   0.636E-03
 280 F= -.23541370E+04 E0= -.23541370E+04  d E =-.198699E-03  mag=     2.0000
       N       E                     dE             d eps       ncg     rms          rms(c)
DAV:   1    -0.233263878904E+04   -0.47416E-04   -0.14262E-02  4512   0.989E-02    0.339E-02
RMM:   2    -0.233263891355E+04   -0.12452E-03   -0.11545E-03  5925   0.205E-02    0.411E-02
RMM:   3    -0.233263890616E+04    0.73914E-05   -0.12919E-04  2936   0.805E-03    0.257E-02
RMM:   4    -0.233263890112E+04    0.50384E-05   -0.17186E-05  2906   0.291E-03
 281 F= -.23541371E+04 E0= -.23541371E+04  d E =-.747815E-04  mag=     2.0000
       N       E                     dE             d eps       ncg     rms          rms(c)
DAV:   1    -0.233263863238E+04    0.27378E-03   -0.63026E-02  4512   0.208E-01    0.771E-02
RMM:   2    -0.233263912771E+04   -0.49533E-03   -0.51932E-03  6334   0.411E-02    0.626E-02
RMM:   3    -0.233263920149E+04   -0.73775E-04   -0.59165E-04  3177   0.160E-02    0.862E-02
RMM:   4    -0.233263913339E+04    0.68093E-04   -0.79600E-05  2947   0.594E-03    0.339E-02
RMM:   5    -0.233263914395E+04   -0.10559E-04   -0.46029E-05  2968   0.433E-03    0.414E-02
RMM:   6    -0.233263912258E+04    0.21369E-04   -0.30927E-05  2929   0.442E-03    0.826E-03
RMM:   7    -0.233263912238E+04    0.20536E-06   -0.61752E-06  2851   0.279E-03
 282 F= -.23541372E+04 E0= -.23541372E+04  d E =-.116853E-03  mag=     2.0000
       N       E                     dE             d eps       ncg     rms          rms(c)
DAV:   1    -0.233263912052E+04    0.20605E-05   -0.18102E-02  4512   0.106E-01    0.375E-02
RMM:   2    -0.233263927604E+04   -0.15552E-03   -0.15626E-03  5796   0.222E-02    0.350E-02
RMM:   3    -0.233263928619E+04   -0.10147E-04   -0.16490E-04  2931   0.807E-03    0.327E-02
RMM:   4    -0.233263927601E+04    0.10179E-04   -0.20476E-05  2920   0.314E-03    0.199E-02
RMM:   5    -0.233263927616E+04   -0.14940E-06   -0.95447E-06  2616   0.185E-03
 283 F= -.23541372E+04 E0= -.23541372E+04  d E =-.644748E-04  mag=     2.0000
       N       E                     dE             d eps       ncg     rms          rms(c)
DAV:   1    -0.233263853621E+04    0.73980E-03   -0.12205E-01  4512   0.276E-01    0.968E-02
RMM:   2    -0.233263955886E+04   -0.10226E-02   -0.10391E-02  6455   0.552E-02    0.866E-02
RMM:   3    -0.233263963228E+04   -0.73425E-04   -0.11131E-03  3532   0.195E-02    0.806E-02
RMM:   4    -0.233263955694E+04    0.75346E-04   -0.12744E-04  3017   0.703E-03    0.440E-02
RMM:   5    -0.233263957863E+04   -0.21687E-04   -0.73395E-05  2924   0.486E-03    0.622E-02
RMM:   6    -0.233263954232E+04    0.36305E-04   -0.45285E-05  3035   0.464E-03    0.107E-02
RMM:   7    -0.233263954214E+04    0.18133E-06   -0.87940E-06  2863   0.317E-03
 284 F= -.23541373E+04 E0= -.23541373E+04  d E =-.988694E-04  mag=     2.0000
       N       E                     dE             d eps       ncg     rms          rms(c)
DAV:   1    -0.233263953078E+04    0.11544E-04   -0.22575E-02  4512   0.122E-01    0.431E-02
RMM:   2    -0.233263972619E+04   -0.19542E-03   -0.19301E-03  6078   0.250E-02    0.425E-02
RMM:   3    -0.233263973395E+04   -0.77596E-05   -0.20091E-04  2939   0.921E-03    0.373E-02
RMM:   4    -0.233263972143E+04    0.12520E-04   -0.26166E-05  2927   0.350E-03    0.232E-02
RMM:   5    -0.233263972032E+04    0.11087E-05   -0.11753E-05  2710   0.200E-03
 285 F= -.23541373E+04 E0= -.23541373E+04  d E =-.857891E-04  mag=     2.0000
       N       E                     dE             d eps       ncg     rms          rms(c)
DAV:   1    -0.233263896003E+04    0.76141E-03   -0.12945E-01  4512   0.292E-01    0.103E-01
RMM:   2    -0.233264005673E+04   -0.10967E-02   -0.10900E-02  6369   0.582E-02    0.100E-01
RMM:   3    -0.233264010255E+04   -0.45825E-04   -0.11564E-03  3777   0.211E-02    0.861E-02
RMM:   4    -0.233264002372E+04    0.78830E-04   -0.13667E-04  3029   0.720E-03    0.503E-02
RMM:   5    -0.233264003192E+04   -0.81972E-05   -0.72089E-05  2933   0.498E-03
 286 F= -.23541374E+04 E0= -.23541374E+04  d E =-.176355E-03  mag=     2.0000
       N       E                     dE             d eps       ncg     rms          rms(c)
DAV:   1    -0.233264004536E+04   -0.21638E-04   -0.14784E-02  4592   0.105E-01    0.388E-02
RMM:   2    -0.233264017986E+04   -0.13450E-03   -0.13139E-03  5950   0.228E-02    0.412E-02
RMM:   3    -0.233264018274E+04   -0.28775E-05   -0.14508E-04  2922   0.867E-03    0.350E-02
RMM:   4    -0.233264017324E+04    0.94980E-05   -0.18138E-05  2937   0.323E-03
 287 F= -.23541375E+04 E0= -.23541375E+04  d E =-.540935E-04  mag=     2.0000
       N       E                     dE             d eps       ncg     rms          rms(c)
DAV:   1    -0.233264017051E+04    0.12235E-04   -0.14761E-02  4544   0.104E-01    0.443E-02
RMM:   2    -0.233264034811E+04   -0.17761E-03   -0.12812E-03  5954   0.209E-02    0.857E-02
RMM:   3    -0.233264029106E+04    0.57048E-04   -0.16507E-04  2926   0.896E-03    0.282E-02
RMM:   4    -0.233264028549E+04    0.55795E-05   -0.22429E-05  2978   0.325E-03
 288 F= -.23541375E+04 E0= -.23541375E+04  d E =-.806395E-04  mag=     2.0000
       N       E                     dE             d eps       ncg     rms          rms(c)
DAV:   1    -0.233264034909E+04   -0.58029E-04   -0.55012E-03  4608   0.708E-02    0.322E-02
RMM:   2    -0.233264041432E+04   -0.65222E-04   -0.53276E-04  5469   0.149E-02    0.468E-02
RMM:   3    -0.233264039677E+04    0.17549E-04   -0.66481E-05  2924   0.677E-03    0.228E-02
RMM:   4    -0.233264039737E+04   -0.60808E-06   -0.15470E-05  2928   0.248E-03
 289 F= -.23541376E+04 E0= -.23541376E+04  d E =-.497189E-04  mag=     2.0000
       N       E                     dE             d eps       ncg     rms          rms(c)
DAV:   1    -0.233264041648E+04   -0.19712E-04   -0.12940E-03  4792   0.343E-02    0.169E-02
RMM:   2    -0.233264043509E+04   -0.18610E-04   -0.12550E-04  3290   0.764E-03    0.301E-02
RMM:   3    -0.233264042752E+04    0.75716E-05   -0.19603E-05  2856   0.464E-03
 290 F= -.23541376E+04 E0= -.23541376E+04  d E =-.496810E-04  mag=     2.0000
       N       E                     dE             d eps       ncg     rms          rms(c)
DAV:   1    -0.233264046144E+04   -0.26355E-04   -0.31812E-03  4544   0.591E-02    0.244E-02
RMM:   2    -0.233264050364E+04   -0.42196E-04   -0.30561E-04  4767   0.120E-02    0.365E-02
RMM:   3    -0.233264048876E+04    0.14880E-04   -0.37477E-05  2918   0.616E-03    0.153E-02
RMM:   4    -0.233264048739E+04    0.13657E-05   -0.58804E-06  2823   0.205E-03
 291 F= -.23541376E+04 E0= -.23541376E+04  d E =-.323391E-04  mag=     2.0000
       N       E                     dE             d eps       ncg     rms          rms(c)
DAV:   1    -0.233264049792E+04   -0.91607E-05   -0.12052E-03  4696   0.365E-02    0.165E-02
RMM:   2    -0.233264051745E+04   -0.19533E-04   -0.11456E-04  3307   0.768E-03    0.347E-02
RMM:   3    -0.233264050754E+04    0.99106E-05   -0.17851E-05  2872   0.463E-03
 292 F= -.23541376E+04 E0= -.23541376E+04  d E =-.354737E-04  mag=     2.0000
       N       E                     dE             d eps       ncg     rms          rms(c)
DAV:   1    -0.233264051214E+04    0.53111E-05   -0.34942E-03  4544   0.637E-02    0.226E-02
RMM:   2    -0.233264054258E+04   -0.30439E-04   -0.29691E-04  5162   0.128E-02    0.242E-02
RMM:   3    -0.233264054291E+04   -0.33005E-06   -0.33860E-05  2913   0.614E-03
 293 F= -.23541376E+04 E0= -.23541376E+04  d E =-.236921E-04  mag=     2.0000
       N       E                     dE             d eps       ncg     rms          rms(c)
DAV:   1    -0.233264053871E+04    0.38684E-05   -0.19642E-05  4056   0.455E-03    0.995E-03
RMM:   2    -0.233264054634E+04   -0.76298E-05   -0.13598E-05  2512   0.260E-03
 294 F= -.23541376E+04 E0= -.23541376E+04  d E =-.268530E-04  mag=     2.0000
       N       E                     dE             d eps       ncg     rms          rms(c)
DAV:   1    -0.233264054552E+04   -0.68053E-05   -0.32826E-03  4544   0.619E-02    0.195E-02
RMM:   2    -0.233264057359E+04   -0.28074E-04   -0.30681E-04  5034   0.132E-02    0.115E-02
RMM:   3    -0.233264057609E+04   -0.24943E-05   -0.33677E-05  2887   0.607E-03
 295 F= -.23541376E+04 E0= -.23541376E+04  d E =-.895827E-05  mag=     2.0000
       N       E                     dE             d eps       ncg     rms          rms(c)
DAV:   1    -0.233264057406E+04   -0.47214E-06   -0.12412E-05  3776   0.435E-03    0.881E-03
RMM:   2    -0.233264058266E+04   -0.85970E-05   -0.10178E-05  2494   0.253E-03
 296 F= -.23541376E+04 E0= -.23541376E+04  d E =-.162073E-04  mag=     2.0000
       N       E                     dE             d eps       ncg     rms          rms(c)
DAV:   1    -0.233264058842E+04   -0.14357E-04   -0.28257E-03  4528   0.586E-02    0.183E-02
RMM:   2    -0.233264061372E+04   -0.25303E-04   -0.26750E-04  4918   0.122E-02    0.140E-02
RMM:   3    -0.233264061832E+04   -0.45968E-05   -0.29922E-05  2876   0.595E-03
 297 F= -.23541377E+04 E0= -.23541377E+04  d E =-.168144E-04  mag=     2.0000
       N       E                     dE             d eps       ncg     rms          rms(c)
DAV:   1    -0.233264061712E+04   -0.33916E-05   -0.18060E-04  5304   0.152E-02    0.727E-03
RMM:   2    -0.233264061859E+04   -0.14762E-05   -0.19333E-05  2503   0.358E-03
 298 F= -.23541377E+04 E0= -.23541377E+04  d E =-.123667E-04  mag=     2.0000
       N       E                     dE             d eps       ncg     rms          rms(c)
DAV:   1    -0.233264062783E+04   -0.10719E-04   -0.19458E-03  4512   0.493E-02    0.166E-02
RMM:   2    -0.233264065013E+04   -0.22296E-04   -0.18687E-04  4116   0.112E-02    0.244E-02
RMM:   3    -0.233264064583E+04    0.42988E-05   -0.24110E-05  2810   0.601E-03
 299 F= -.23541377E+04 E0= -.23541377E+04  d E =-.150930E-04  mag=     2.0000
       N       E                     dE             d eps       ncg     rms          rms(c)
DAV:   1    -0.233264064437E+04    0.57588E-05   -0.16515E-05  3728   0.476E-03    0.101E-02
RMM:   2    -0.233264065626E+04   -0.11892E-04   -0.17678E-05  2576   0.304E-03    0.339E-02
RMM:   3    -0.233264064348E+04    0.12781E-04   -0.59263E-06  2015   0.183E-03    0.474E-03
RMM:   4    -0.233264064330E+04    0.18475E-06   -0.86473E-07  1636   0.973E-04
 300 F= -.23541377E+04 E0= -.23541377E+04  d E =-.132168E-04  mag=     2.0000
       N       E                     dE             d eps       ncg     rms          rms(c)
DAV:   1    -0.233264064853E+04   -0.50450E-05   -0.16409E-03  4472   0.455E-02    0.138E-02
RMM:   2    -0.233264066095E+04   -0.12417E-04   -0.13574E-04  3734   0.878E-03    0.715E-03
RMM:   3    -0.233264066256E+04   -0.16153E-05   -0.15803E-05  2495   0.533E-03
 301 F= -.23541377E+04 E0= -.23541377E+04  d E =-.145515E-04  mag=     2.0000
