       N       E                     dE             d eps       ncg     rms          rms(c)
DAV:   1     0.127829113588E+05    0.12783E+05   -0.82854E+05  4416   0.144E+03
DAV:   2    -0.105375187675E+04   -0.13837E+05   -0.13258E+05  5288   0.331E+02
DAV:   3    -0.246149439473E+04   -0.14077E+04   -0.13947E+04  5304   0.111E+02
DAV:   4    -0.250695288903E+04   -0.45458E+02   -0.45234E+02  6712   0.299E+01
DAV:   5    -0.250769138527E+04   -0.73850E+00   -0.73713E+00  5496   0.305E+00    0.170E+02
RMM:   6    -0.147293962414E+04    0.10348E+04   -0.19243E+03  4383   0.388E+01    0.733E+01
RMM:   7    -0.164642428273E+04   -0.17348E+03   -0.29565E+02  4979   0.147E+01    0.550E+01
RMM:   8    -0.168496563688E+04   -0.38541E+02   -0.73942E+01  5268   0.763E+00    0.417E+01
RMM:   9    -0.177931999390E+04   -0.94354E+02   -0.63463E+01  4808   0.817E+00    0.327E+01
RMM:  10    -0.190690976387E+04   -0.12759E+03   -0.59580E+01  5012   0.748E+00    0.195E+01
RMM:  11    -0.202077050176E+04   -0.11386E+03   -0.48908E+01  4815   0.580E+00    0.150E+01
RMM:  12    -0.211437797724E+04   -0.93607E+02   -0.48376E+01  4482   0.537E+00    0.114E+01
RMM:  13    -0.224526200993E+04   -0.13088E+03   -0.12041E+02  4374   0.765E+00    0.750E+00
RMM:  14    -0.228228830423E+04   -0.37026E+02   -0.36437E+01  4448   0.476E+00    0.414E+00
RMM:  15    -0.229122871343E+04   -0.89404E+01   -0.11010E+01  4721   0.255E+00    0.271E+00
RMM:  16    -0.229476440178E+04   -0.35357E+01   -0.32046E+00  4694   0.141E+00    0.163E+00
RMM:  17    -0.229605680800E+04   -0.12924E+01   -0.87708E-01  4945   0.704E-01    0.215E+00
RMM:  18    -0.229615829999E+04   -0.10149E+00   -0.12713E-01  5539   0.247E-01    0.272E+00
RMM:  19    -0.229661430675E+04   -0.45601E+00   -0.35522E-01  4445   0.263E-01    0.121E+00
RMM:  20    -0.229676699497E+04   -0.15269E+00   -0.78653E-02  4524   0.153E-01    0.135E+00
RMM:  21    -0.229681253824E+04   -0.45543E-01   -0.58695E-02  4957   0.123E-01    0.146E+00
RMM:  22    -0.229682510743E+04   -0.12569E-01   -0.43892E-02  4716   0.113E-01    0.185E+00
RMM:  23    -0.229680698746E+04    0.18120E-01   -0.10168E-02  4753   0.667E-02    0.214E+00
RMM:  24    -0.229681127992E+04   -0.42925E-02   -0.10792E-03  4793   0.171E-02    0.208E+00
RMM:  25    -0.229684067958E+04   -0.29400E-01   -0.76668E-03  4718   0.489E-02    0.175E+00
RMM:  26    -0.229692582281E+04   -0.85143E-01   -0.62156E-02  4589   0.121E-01    0.203E+00
RMM:  27    -0.229698815883E+04   -0.62336E-01   -0.39151E-02  4576   0.105E-01    0.364E+00
RMM:  28    -0.229697737469E+04    0.10784E-01   -0.40708E-03  5034   0.444E-02    0.317E+00
RMM:  29    -0.229695359154E+04    0.23783E-01   -0.10033E-02  4557   0.493E-02    0.244E+00
RMM:  30    -0.229694264872E+04    0.10943E-01   -0.34216E-02  4619   0.102E-01    0.194E+00
RMM:  31    -0.229693294872E+04    0.97000E-02   -0.17153E-02  4594   0.807E-02    0.191E+00
RMM:  32    -0.229692605969E+04    0.68890E-02   -0.79966E-03  4880   0.457E-02    0.209E+00
RMM:  33    -0.229690190810E+04    0.24152E-01   -0.13826E-02  4574   0.573E-02    0.269E+00
RMM:  34    -0.229689864082E+04    0.32673E-02   -0.15086E-03  4280   0.256E-02    0.275E+00
RMM:  35    -0.229689510037E+04    0.35404E-02   -0.47932E-04  3723   0.851E-03    0.281E+00
RMM:  36    -0.229691276597E+04   -0.17666E-01   -0.14806E-03  4197   0.189E-02    0.258E+00
RMM:  37    -0.229693839031E+04   -0.25624E-01   -0.78897E-03  4687   0.401E-02    0.215E+00
RMM:  38    -0.229696701577E+04   -0.28625E-01   -0.20050E-02  4748   0.617E-02    0.240E+00
RMM:  39    -0.229695744415E+04    0.95716E-02   -0.16986E-03  4098   0.287E-02    0.208E+00
RMM:  40    -0.229694848376E+04    0.89604E-02   -0.50274E-03  4377   0.327E-02    0.209E+00
RMM:  41    -0.229691727499E+04    0.31209E-01   -0.19052E-02  4728   0.621E-02    0.274E+00
RMM:  42    -0.229690660907E+04    0.10666E-01   -0.37363E-03  4389   0.330E-02    0.297E+00
RMM:  43    -0.229693253355E+04   -0.25924E-01   -0.68287E-03  4512   0.357E-02    0.238E+00
RMM:  44    -0.229696254828E+04   -0.30015E-01   -0.25351E-02  4901   0.706E-02    0.193E+00
RMM:  45    -0.229703605962E+04   -0.73511E-01   -0.64302E-02  5079   0.110E-01    0.432E+00
RMM:  46    -0.229707148959E+04   -0.35430E-01   -0.19380E-02  4869   0.754E-02    0.455E+00
RMM:  47    -0.229706790128E+04    0.35883E-02   -0.34256E-03  4666   0.257E-02    0.453E+00
RMM:  48    -0.229706831336E+04   -0.41208E-03   -0.21365E-04  3228   0.790E-03    0.453E+00
RMM:  49    -0.229707001325E+04   -0.16999E-02   -0.76114E-05  2976   0.543E-03    0.455E+00
RMM:  50    -0.229706948079E+04    0.53246E-03   -0.71443E-05  2926   0.521E-03    0.456E+00
RMM:  51    -0.229706319626E+04    0.62845E-02   -0.30664E-04  3320   0.847E-03    0.454E+00
RMM:  52    -0.229705454977E+04    0.86465E-02   -0.39227E-04  3342   0.937E-03    0.446E+00
RMM:  53    -0.229701712202E+04    0.37428E-01   -0.77008E-03  4550   0.369E-02    0.370E+00
RMM:  54    -0.229697349079E+04    0.43631E-01   -0.25034E-02  4892   0.697E-02    0.228E+00
RMM:  55    -0.229697076694E+04    0.27238E-02   -0.46637E-03  4308   0.425E-02    0.234E+00
RMM:  56    -0.229697174509E+04   -0.97814E-03   -0.13101E-03  4141   0.147E-02    0.236E+00
RMM:  57    -0.229697682368E+04   -0.50786E-02   -0.34885E-04  3417   0.106E-02    0.254E+00
RMM:  58    -0.229697320442E+04    0.36193E-02   -0.26555E-04  3492   0.825E-03    0.241E+00
RMM:  59    -0.229697204113E+04    0.11633E-02   -0.97245E-05  3005   0.541E-03    0.238E+00
RMM:  60    -0.229697210254E+04   -0.61410E-04   -0.13842E-05  2781   0.303E-03    0.238E+00
RMM:  61    -0.229697099426E+04    0.11083E-02   -0.49991E-04  3879   0.101E-02    0.235E+00
RMM:  62    -0.229697394088E+04   -0.29466E-02   -0.39597E-04  3386   0.102E-02    0.242E+00
RMM:  63    -0.229696887518E+04    0.50657E-02   -0.18085E-03  4459   0.195E-02    0.225E+00
RMM:  64    -0.229695366948E+04    0.15206E-01   -0.83690E-03  4901   0.396E-02    0.220E+00
RMM:  65    -0.229692875807E+04    0.24911E-01   -0.13487E-02  4894   0.517E-02    0.270E+00
RMM:  66    -0.229690537391E+04    0.23384E-01   -0.94299E-03  4887   0.442E-02    0.321E+00
RMM:  67    -0.229690636103E+04   -0.98712E-03   -0.83570E-04  3823   0.147E-02    0.319E+00
RMM:  68    -0.229690570494E+04    0.65609E-03   -0.97572E-05  3041   0.467E-03    0.319E+00
RMM:  69    -0.229690791164E+04   -0.22067E-02   -0.10365E-04  3093   0.531E-03    0.312E+00
RMM:  70    -0.229690882062E+04   -0.90898E-03   -0.91636E-05  3079   0.499E-03    0.308E+00
RMM:  71    -0.229691685687E+04   -0.80362E-02   -0.18565E-03  4660   0.193E-02    0.281E+00
RMM:  72    -0.229692551425E+04   -0.86574E-02   -0.42569E-03  4999   0.290E-02    0.247E+00
RMM:  73    -0.229694513892E+04   -0.19625E-01   -0.14549E-02  5181   0.516E-02    0.183E+00
RMM:  74    -0.229696437623E+04   -0.19237E-01   -0.16249E-02  5090   0.557E-02    0.151E+00
RMM:  75    -0.229696878267E+04   -0.44064E-02   -0.28876E-03  4615   0.252E-02    0.153E+00
RMM:  76    -0.229697244074E+04   -0.36581E-02   -0.96978E-04  4193   0.128E-02    0.158E+00
RMM:  77    -0.229696447512E+04    0.79656E-02   -0.15258E-03  4082   0.171E-02    0.148E+00
RMM:  78    -0.229694952752E+04    0.14948E-01   -0.69262E-03  4679   0.348E-02    0.164E+00
RMM:  79    -0.229694676411E+04    0.27634E-02   -0.10685E-03  3822   0.183E-02    0.171E+00
RMM:  80    -0.229694524621E+04    0.15179E-02   -0.25081E-04  3349   0.693E-03    0.171E+00
RMM:  81    -0.229695419159E+04   -0.89454E-02   -0.20066E-03  4236   0.192E-02    0.151E+00
RMM:  82    -0.229695214319E+04    0.20484E-02   -0.91762E-05  2972   0.724E-03    0.154E+00
RMM:  83    -0.229695171287E+04    0.43032E-03   -0.15937E-05  2534   0.258E-03    0.155E+00
RMM:  84    -0.229694965721E+04    0.20557E-02   -0.93769E-05  2955   0.438E-03    0.158E+00
RMM:  85    -0.229695345784E+04   -0.38006E-02   -0.37954E-04  3429   0.853E-03    0.150E+00
RMM:  86    -0.229695318386E+04    0.27398E-03   -0.29526E-04  3488   0.866E-03    0.145E+00
RMM:  87    -0.229695234758E+04    0.83628E-03   -0.26711E-05  2726   0.372E-03    0.147E+00
RMM:  88    -0.229695417843E+04   -0.18308E-02   -0.72895E-05  2818   0.365E-03    0.144E+00
RMM:  89    -0.229695494075E+04   -0.76232E-03   -0.17620E-05  2477   0.257E-03    0.144E+00
RMM:  90    -0.229695638939E+04   -0.14486E-02   -0.55162E-05  2866   0.334E-03    0.143E+00
RMM:  91    -0.229697009115E+04   -0.13702E-01   -0.50169E-03  4583   0.292E-02    0.141E+00
RMM:  92    -0.229696966404E+04    0.42711E-03   -0.35716E-04  3258   0.138E-02    0.138E+00
RMM:  93    -0.229696967775E+04   -0.13710E-04   -0.59675E-05  2912   0.423E-03    0.140E+00
RMM:  94    -0.229696614059E+04    0.35372E-02   -0.39437E-04  3434   0.874E-03    0.139E+00
RMM:  95    -0.229696305027E+04    0.30903E-02   -0.35538E-04  3326   0.861E-03    0.138E+00
RMM:  96    -0.229696879074E+04   -0.57405E-02   -0.87778E-04  3850   0.132E-02    0.138E+00
RMM:  97    -0.229696886016E+04   -0.69422E-04   -0.48329E-05  2762   0.567E-03    0.138E+00
RMM:  98    -0.229697124396E+04   -0.23838E-02   -0.11855E-04  2960   0.461E-03    0.145E+00
RMM:  99    -0.229697692639E+04   -0.56824E-02   -0.57669E-04  3494   0.100E-02    0.163E+00
RMM: 100    -0.229698077800E+04   -0.38516E-02   -0.41298E-04  3331   0.976E-03    0.176E+00
RMM: 101    -0.229697093370E+04    0.98443E-02   -0.11913E-03  3701   0.157E-02    0.139E+00
RMM: 102    -0.229696882746E+04    0.21062E-02   -0.26990E-04  3097   0.962E-03    0.138E+00
RMM: 103    -0.229697001544E+04   -0.11880E-02   -0.25079E-05  2807   0.432E-03    0.141E+00
RMM: 104    -0.229696891749E+04    0.10979E-02   -0.89879E-05  3024   0.442E-03    0.141E+00
RMM: 105    -0.229696657565E+04    0.23418E-02   -0.33711E-04  3739   0.780E-03    0.143E+00
RMM: 106    -0.229696245426E+04    0.41214E-02   -0.87953E-04  4006   0.128E-02    0.146E+00
RMM: 107    -0.229695621298E+04    0.62413E-02   -0.15918E-03  4279   0.173E-02    0.152E+00
RMM: 108    -0.229695281166E+04    0.34013E-02   -0.59001E-04  3626   0.117E-02    0.157E+00
RMM: 109    -0.229695273172E+04    0.79948E-04   -0.71342E-05  2937   0.491E-03    0.158E+00
RMM: 110    -0.229695259354E+04    0.13817E-03   -0.72353E-06  2620   0.257E-03    0.157E+00
RMM: 111    -0.229692748432E+04    0.25109E-01   -0.29809E-02  5305   0.758E-02    0.250E+00
RMM: 112    -0.229691977312E+04    0.77112E-02   -0.45081E-03  4647   0.311E-02    0.269E+00
RMM: 113    -0.229691652176E+04    0.32514E-02   -0.72232E-04  3804   0.111E-02    0.276E+00
RMM: 114    -0.229691725001E+04   -0.72825E-03   -0.58668E-05  2891   0.563E-03    0.274E+00
RMM: 115    -0.229691783335E+04   -0.58334E-03   -0.69964E-06  2726   0.220E-03    0.273E+00
RMM: 116    -0.229691940603E+04   -0.15727E-02   -0.41684E-05  2784   0.314E-03    0.269E+00
RMM: 117    -0.229692253619E+04   -0.31302E-02   -0.12910E-04  3120   0.520E-03    0.262E+00
RMM: 118    -0.229693739508E+04   -0.14859E-01   -0.32887E-03  4486   0.240E-02    0.227E+00
RMM: 119    -0.229695423161E+04   -0.16837E-01   -0.70620E-03  4675   0.374E-02    0.191E+00
RMM: 120    -0.229696537705E+04   -0.11145E-01   -0.50939E-03  4638   0.320E-02    0.187E+00
RMM: 121    -0.229696975100E+04   -0.43740E-02   -0.15668E-03  4238   0.176E-02    0.192E+00
RMM: 122    -0.229696890030E+04    0.85071E-03   -0.12769E-04  3024   0.703E-03    0.190E+00
RMM: 123    -0.229696853935E+04    0.36095E-03   -0.16015E-05  2795   0.326E-03    0.190E+00
RMM: 124    -0.229696819336E+04    0.34599E-03   -0.13323E-05  2708   0.252E-03    0.190E+00
RMM: 125    -0.229696845564E+04   -0.26228E-03   -0.20651E-06  2288   0.153E-03    0.191E+00
RMM: 126    -0.229696747047E+04    0.98517E-03   -0.14939E-05  2491   0.192E-03    0.189E+00
RMM: 127    -0.229696585250E+04    0.16180E-02   -0.61733E-05  2902   0.337E-03    0.186E+00
RMM: 128    -0.229696174964E+04    0.41029E-02   -0.40489E-04  3474   0.832E-03    0.183E+00
RMM: 129    -0.229695760807E+04    0.41416E-02   -0.51494E-04  3458   0.990E-03    0.183E+00
RMM: 130    -0.229696180092E+04   -0.41929E-02   -0.29822E-04  3245   0.827E-03    0.183E+00
RMM: 131    -0.229696184762E+04   -0.46697E-04   -0.30664E-05  2718   0.391E-03    0.181E+00
RMM: 132    -0.229696211052E+04   -0.26290E-03   -0.13952E-05  2462   0.203E-03    0.181E+00
RMM: 133    -0.229696167040E+04    0.44012E-03   -0.73983E-06  2263   0.168E-03    0.182E+00
RMM: 134    -0.229696128744E+04    0.38296E-03   -0.39257E-06  1750   0.109E-03    0.182E+00
RMM: 135    -0.229696036922E+04    0.91822E-03   -0.19688E-05  2466   0.205E-03    0.181E+00
RMM: 136    -0.229694329549E+04    0.17074E-01   -0.56129E-03  4349   0.299E-02    0.198E+00
RMM: 137    -0.229694365721E+04   -0.36172E-03   -0.31162E-04  3184   0.144E-02    0.197E+00
RMM: 138    -0.229694390263E+04   -0.24542E-03   -0.56919E-05  2892   0.355E-03    0.196E+00
RMM: 139    -0.229694517940E+04   -0.12768E-02   -0.25339E-05  2716   0.300E-03    0.194E+00
RMM: 140    -0.229694569330E+04   -0.51389E-03   -0.85611E-06  2415   0.202E-03    0.193E+00
RMM: 141    -0.229695647451E+04   -0.10781E-01   -0.26784E-03  4316   0.218E-02    0.175E+00
RMM: 142    -0.229695887728E+04   -0.24028E-02   -0.44960E-04  3250   0.124E-02    0.174E+00
RMM: 143    -0.229695935705E+04   -0.47977E-03   -0.10571E-04  2976   0.457E-03    0.174E+00
RMM: 144    -0.229695901086E+04    0.34619E-03   -0.70421E-06  2594   0.281E-03    0.174E+00
RMM: 145    -0.229695808719E+04    0.92368E-03   -0.20489E-05  2474   0.224E-03    0.174E+00
RMM: 146    -0.229695702217E+04    0.10650E-02   -0.39322E-05  2778   0.287E-03    0.175E+00
RMM: 147    -0.229695773630E+04   -0.71412E-03   -0.69149E-06  2256   0.174E-03    0.175E+00
RMM: 148    -0.229695757332E+04    0.16298E-03   -0.49605E-07  1750   0.867E-04    0.175E+00
RMM: 149    -0.229695202570E+04    0.55476E-02   -0.70502E-04  3633   0.110E-02    0.181E+00
RMM: 150    -0.229694940733E+04    0.26184E-02   -0.26718E-04  3141   0.869E-03    0.186E+00
RMM: 151    -0.229694840818E+04    0.99916E-03   -0.16590E-04  3189   0.595E-03    0.188E+00
RMM: 152    -0.229695236204E+04   -0.39539E-02   -0.26558E-04  3192   0.727E-03    0.182E+00
RMM: 153    -0.229695216082E+04    0.20122E-03   -0.19198E-05  2675   0.331E-03    0.184E+00
RMM: 154    -0.229696567032E+04   -0.13509E-01   -0.36623E-03  4187   0.242E-02    0.185E+00
RMM: 155    -0.229697943757E+04   -0.13767E-01   -0.42977E-03  4272   0.297E-02    0.225E+00
RMM: 156    -0.229698012988E+04   -0.69231E-03   -0.12474E-03  4452   0.198E-02    0.241E+00
RMM: 157    -0.229697294761E+04    0.71823E-02   -0.73388E-04  3507   0.125E-02    0.215E+00
RMM: 158    -0.229695198662E+04    0.20961E-01   -0.95295E-03  4629   0.407E-02    0.202E+00
RMM: 159    -0.229693224654E+04    0.19740E-01   -0.87736E-03  4563   0.428E-02    0.242E+00
RMM: 160    -0.229692871091E+04    0.35356E-02   -0.14811E-03  4122   0.184E-02    0.250E+00
RMM: 161    -0.229690108194E+04    0.27629E-01   -0.97007E-03  4828   0.419E-02    0.310E+00
RMM: 162    -0.229690047881E+04    0.60313E-03   -0.69366E-04  3558   0.181E-02    0.312E+00
RMM: 163    -0.229690719444E+04   -0.67156E-02   -0.29781E-04  3199   0.778E-03    0.300E+00
RMM: 164    -0.229692797992E+04   -0.20785E-01   -0.45232E-03  4389   0.283E-02    0.257E+00
RMM: 165    -0.229695656911E+04   -0.28589E-01   -0.16305E-02  4837   0.565E-02    0.199E+00
RMM: 166    -0.229698201715E+04   -0.25448E-01   -0.18781E-02  4967   0.608E-02    0.244E+00
RMM: 167    -0.229701076691E+04   -0.28750E-01   -0.12939E-02  4818   0.509E-02    0.364E+00
RMM: 168    -0.229702691616E+04   -0.16149E-01   -0.48013E-03  4622   0.357E-02    0.408E+00
RMM: 169    -0.229702398797E+04    0.29282E-02   -0.74765E-04  3732   0.163E-02    0.397E+00
RMM: 170    -0.229701471671E+04    0.92713E-02   -0.42685E-04  3373   0.110E-02    0.369E+00
RMM: 171    -0.229702331276E+04   -0.85961E-02   -0.38737E-04  3393   0.938E-03    0.401E+00
RMM: 172    -0.229703489551E+04   -0.11583E-01   -0.99770E-04  3835   0.128E-02    0.429E+00
RMM: 173    -0.229703638828E+04   -0.14928E-02   -0.14051E-04  3009   0.855E-03    0.431E+00
RMM: 174    -0.229703557151E+04    0.81677E-03   -0.37124E-05  2839   0.380E-03    0.429E+00
RMM: 175    -0.229703684497E+04   -0.12735E-02   -0.18713E-05  2760   0.286E-03    0.432E+00
RMM: 176    -0.229707121094E+04   -0.34366E-01   -0.50744E-03  4463   0.288E-02    0.476E+00
RMM: 177    -0.229707296125E+04   -0.17503E-02   -0.50929E-04  3322   0.170E-02    0.475E+00
RMM: 178    -0.229706579599E+04    0.71653E-02   -0.16708E-04  3110   0.759E-03    0.472E+00
RMM: 179    -0.229706531364E+04    0.48234E-03   -0.11289E-05  2747   0.330E-03    0.472E+00
RMM: 180    -0.229706620821E+04   -0.89456E-03   -0.40767E-06  2244   0.118E-03    0.472E+00
RMM: 181    -0.229702910670E+04    0.37102E-01   -0.53698E-03  4277   0.291E-02    0.406E+00
RMM: 182    -0.229705909084E+04   -0.29984E-01   -0.34565E-03  4434   0.275E-02    0.465E+00
RMM: 183    -0.229706921816E+04   -0.10127E-01   -0.98654E-04  3688   0.151E-02    0.468E+00
RMM: 184    -0.229706440939E+04    0.48088E-02   -0.86500E-05  2938   0.701E-03    0.465E+00
RMM: 185    -0.229705352664E+04    0.10883E-01   -0.50809E-04  3441   0.990E-03    0.454E+00
RMM: 186    -0.229701686586E+04    0.36661E-01   -0.65078E-03  4485   0.333E-02    0.368E+00
RMM: 187    -0.229699474116E+04    0.22125E-01   -0.53589E-03  4256   0.349E-02    0.288E+00
RMM: 188    -0.229697206004E+04    0.22681E-01   -0.11004E-02  4987   0.440E-02    0.200E+00
RMM: 189    -0.229694808862E+04    0.23971E-01   -0.16252E-02  4823   0.559E-02    0.198E+00
RMM: 190    -0.229694008259E+04    0.80060E-02   -0.42239E-03  4456   0.339E-02    0.215E+00
RMM: 191    -0.229694303125E+04   -0.29487E-02   -0.41966E-04  3543   0.988E-03    0.209E+00
RMM: 192    -0.229693451686E+04    0.85144E-02   -0.11780E-03  4046   0.145E-02    0.227E+00
RMM: 193    -0.229693622059E+04   -0.17037E-02   -0.70123E-05  2905   0.631E-03    0.223E+00
RMM: 194    -0.229693512025E+04    0.11003E-02   -0.26782E-05  2781   0.263E-03    0.226E+00
RMM: 195    -0.229693335315E+04    0.17671E-02   -0.54694E-05  2925   0.361E-03    0.230E+00
RMM: 196    -0.229699977896E+04   -0.66426E-01   -0.75458E-02  4741   0.109E-01    0.313E+00
RMM: 197    -0.229704132023E+04   -0.41541E-01   -0.24487E-02  4574   0.851E-02    0.438E+00
RMM: 198    -0.229699106158E+04    0.50259E-01   -0.11771E-02  4439   0.552E-02    0.256E+00
RMM: 199    -0.229701693804E+04   -0.25876E-01   -0.43214E-03  4498   0.350E-02    0.382E+00
RMM: 200    -0.229703844566E+04   -0.21508E-01   -0.45099E-03  4373   0.294E-02    0.429E+00
RMM: 201    -0.229704361352E+04   -0.51679E-02   -0.10141E-03  3783   0.183E-02    0.437E+00
RMM: 202    -0.229707335716E+04   -0.29744E-01   -0.50020E-03  4684   0.276E-02    0.467E+00
RMM: 203    -0.229707910929E+04   -0.57521E-02   -0.78378E-04  3577   0.174E-02    0.467E+00
RMM: 204    -0.229708651172E+04   -0.74024E-02   -0.62725E-04  3730   0.992E-03    0.467E+00
RMM: 205    -0.229708363388E+04    0.28778E-02   -0.47902E-05  2863   0.571E-03    0.466E+00
RMM: 206    -0.229689703104E+04    0.18660E+00   -0.36226E-01  4819   0.249E-01    0.314E+00
RMM: 207    -0.229687604904E+04    0.20982E-01   -0.35625E-02  4448   0.138E-01    0.349E+00
RMM: 208    -0.229686979637E+04    0.62527E-02   -0.10959E-02  4968   0.380E-02    0.364E+00
RMM: 209    -0.229687270861E+04   -0.29122E-02   -0.43036E-04  3729   0.168E-02    0.359E+00
RMM: 210    -0.229687158457E+04    0.11240E-02   -0.67729E-05  3024   0.423E-03    0.360E+00
RMM: 211    -0.229692467852E+04   -0.53094E-01   -0.21051E-02  4605   0.583E-02    0.271E+00
RMM: 212    -0.229695432110E+04   -0.29643E-01   -0.20985E-02  4751   0.690E-02    0.204E+00
RMM: 213    -0.229699607558E+04   -0.41754E-01   -0.42666E-02  5131   0.874E-02    0.310E+00
RMM: 214    -0.229703243163E+04   -0.36356E-01   -0.16704E-02  4854   0.628E-02    0.429E+00
RMM: 215    -0.229703570284E+04   -0.32712E-02   -0.33546E-03  4539   0.343E-02    0.431E+00
RMM: 216    -0.229701572579E+04    0.19977E-01   -0.22054E-03  4251   0.234E-02    0.379E+00
RMM: 217    -0.229700372414E+04    0.12002E-01   -0.19022E-03  4040   0.211E-02    0.345E+00
RMM: 218    -0.229701351233E+04   -0.97882E-02   -0.66668E-04  3592   0.145E-02    0.389E+00
RMM: 219    -0.229699974221E+04    0.13770E-01   -0.14149E-03  4254   0.174E-02    0.335E+00
RMM: 220    -0.229700669875E+04   -0.69565E-02   -0.34336E-04  3285   0.119E-02    0.372E+00
RMM: 221    -0.229698782075E+04    0.18878E-01   -0.29111E-03  4178   0.220E-02    0.286E+00
RMM: 222    -0.229698875999E+04   -0.93924E-03   -0.34136E-04  3234   0.152E-02    0.298E+00
RMM: 223    -0.229698711001E+04    0.16500E-02   -0.13703E-04  3065   0.577E-03    0.289E+00
RMM: 224    -0.229699095350E+04   -0.38435E-02   -0.15723E-04  3129   0.667E-03    0.305E+00
RMM: 225    -0.229699505714E+04   -0.41036E-02   -0.33438E-04  3418   0.812E-03    0.319E+00
RMM: 226    -0.229701704002E+04   -0.21983E-01   -0.47302E-03  4659   0.285E-02    0.399E+00
RMM: 227    -0.229701940556E+04   -0.23655E-02   -0.86273E-04  3607   0.200E-02    0.402E+00
RMM: 228    -0.229702214739E+04   -0.27418E-02   -0.75220E-04  3914   0.114E-02    0.409E+00
RMM: 229    -0.229699673677E+04    0.25411E-01   -0.35582E-03  4149   0.249E-02    0.310E+00
RMM: 230    -0.229699509010E+04    0.16467E-02   -0.47413E-04  3323   0.169E-02    0.308E+00
RMM: 231    -0.229694418165E+04    0.50908E-01   -0.47727E-02  4802   0.885E-02    0.208E+00
RMM: 232    -0.229694405854E+04    0.12311E-03   -0.40882E-03  3963   0.507E-02    0.211E+00
RMM: 233    -0.229694633367E+04   -0.22751E-02   -0.68414E-04  3695   0.132E-02    0.207E+00
RMM: 234    -0.229694217908E+04    0.41546E-02   -0.40930E-04  3680   0.100E-02    0.216E+00
RMM: 235    -0.229695229525E+04   -0.10116E-01   -0.18683E-03  4048   0.187E-02    0.198E+00
RMM: 236    -0.229696027826E+04   -0.79830E-02   -0.14726E-03  3844   0.184E-02    0.199E+00
RMM: 237    -0.229698841311E+04   -0.28135E-01   -0.14266E-02  4815   0.501E-02    0.283E+00
RMM: 238    -0.229699853393E+04   -0.10121E-01   -0.38518E-03  4265   0.362E-02    0.323E+00
RMM: 239    -0.229699219193E+04    0.63420E-02   -0.58270E-04  3661   0.158E-02    0.298E+00
RMM: 240    -0.229699184462E+04    0.34731E-03   -0.67460E-05  2857   0.543E-03    0.300E+00
RMM: 241    -0.229702047416E+04   -0.28630E-01   -0.61160E-03  4569   0.322E-02    0.403E+00
RMM: 242    -0.229701079723E+04    0.96769E-02   -0.80561E-04  3604   0.229E-02    0.358E+00
RMM: 243    -0.229701160805E+04   -0.81082E-03   -0.23377E-04  3137   0.709E-03    0.363E+00
RMM: 244    -0.229700829957E+04    0.33085E-02   -0.14653E-04  3044   0.631E-03    0.346E+00
RMM: 245    -0.229700009474E+04    0.82048E-02   -0.70549E-04  3716   0.121E-02    0.308E+00
RMM: 246    -0.229697249357E+04    0.27601E-01   -0.11966E-02  4661   0.447E-02    0.192E+00
RMM: 247    -0.229696404071E+04    0.84529E-02   -0.43765E-03  4218   0.377E-02    0.185E+00
RMM: 248    -0.229696506194E+04   -0.10212E-02   -0.97924E-04  3931   0.154E-02    0.185E+00
RMM: 249    -0.229696183775E+04    0.32242E-02   -0.47762E-04  3670   0.110E-02    0.182E+00
RMM: 250    -0.229695421102E+04    0.76267E-02   -0.16262E-03  4310   0.177E-02    0.186E+00
RMM: 251    -0.229693265932E+04    0.21552E-01   -0.10957E-02  4842   0.459E-02    0.237E+00
RMM: 252    -0.229693233313E+04    0.32618E-03   -0.92828E-04  3716   0.190E-02    0.239E+00
RMM: 253    -0.229694109483E+04   -0.87617E-02   -0.95047E-04  3646   0.133E-02    0.221E+00
RMM: 254    -0.229693914864E+04    0.19462E-02   -0.56403E-05  2884   0.536E-03    0.225E+00
RMM: 255    -0.229695803983E+04   -0.18891E-01   -0.71241E-03  4565   0.349E-02    0.193E+00
RMM: 256    -0.229696827186E+04   -0.10232E-01   -0.41257E-03  4306   0.311E-02    0.202E+00
RMM: 257    -0.229697845502E+04   -0.10183E-01   -0.36549E-03  4802   0.256E-02    0.232E+00
RMM: 258    -0.229697474466E+04    0.37104E-02   -0.27933E-04  3353   0.125E-02    0.217E+00
RMM: 259    -0.229696620231E+04    0.85424E-02   -0.18209E-03  4078   0.185E-02    0.198E+00
RMM: 260    -0.229696122837E+04    0.49739E-02   -0.10396E-03  3745   0.164E-02    0.194E+00
RMM: 261    -0.229694905060E+04    0.12178E-01   -0.45023E-03  4586   0.277E-02    0.202E+00
RMM: 262    -0.229694543078E+04    0.36198E-02   -0.77280E-04  3639   0.164E-02    0.208E+00
RMM: 263    -0.229694548875E+04   -0.57966E-04   -0.14122E-04  2999   0.523E-03    0.208E+00
RMM: 264    -0.229694238940E+04    0.30993E-02   -0.23754E-04  3384   0.731E-03    0.215E+00
RMM: 265    -0.229693652005E+04    0.58694E-02   -0.80872E-04  4078   0.127E-02    0.230E+00
RMM: 266    -0.229692314729E+04    0.13373E-01   -0.26632E-03  4290   0.221E-02    0.257E+00
RMM: 267    -0.229692631381E+04   -0.31665E-02   -0.20011E-04  3130   0.999E-03    0.252E+00
RMM: 268    -0.229693818525E+04   -0.11871E-01   -0.21888E-03  3996   0.194E-02    0.233E+00
RMM: 269    -0.229696345198E+04   -0.25267E-01   -0.13348E-02  4588   0.491E-02    0.206E+00
RMM: 270    -0.229697160737E+04   -0.81554E-02   -0.32556E-03  4061   0.304E-02    0.223E+00
RMM: 271    -0.229696713827E+04    0.44691E-02   -0.34608E-04  3346   0.108E-02    0.210E+00
RMM: 272    -0.229696271666E+04    0.44216E-02   -0.44320E-04  3279   0.930E-03    0.206E+00
RMM: 273    -0.229696237659E+04    0.34007E-03   -0.42407E-05  2762   0.508E-03    0.206E+00
RMM: 274    -0.229696231574E+04    0.60849E-04   -0.11354E-05  2449   0.231E-03    0.206E+00
RMM: 275    -0.229696894881E+04   -0.66331E-02   -0.10245E-03  3672   0.127E-02    0.217E+00
RMM: 276    -0.229691790213E+04    0.51047E-01   -0.44166E-02  4669   0.861E-02    0.280E+00
RMM: 277    -0.229690977509E+04    0.81270E-02   -0.44428E-03  4145   0.457E-02    0.297E+00
RMM: 278    -0.229691562959E+04   -0.58545E-02   -0.49077E-04  3702   0.940E-03    0.285E+00
RMM: 279    -0.229691720727E+04   -0.15777E-02   -0.53239E-05  2893   0.481E-03    0.282E+00
RMM: 280    -0.229692612345E+04   -0.89162E-02   -0.10607E-03  3752   0.137E-02    0.262E+00
RMM: 281    -0.229695358866E+04   -0.27465E-01   -0.13567E-02  4785   0.503E-02    0.203E+00
RMM: 282    -0.229696673953E+04   -0.13151E-01   -0.65535E-03  4474   0.386E-02    0.202E+00
RMM: 283    -0.229696775977E+04   -0.10202E-02   -0.10518E-03  3950   0.150E-02    0.202E+00
RMM: 284    -0.229697062257E+04   -0.28628E-02   -0.31357E-04  3427   0.814E-03    0.209E+00
RMM: 285    -0.229696836246E+04    0.22601E-02   -0.88454E-05  2970   0.616E-03    0.204E+00
RMM: 286    -0.229695987822E+04    0.84842E-02   -0.17932E-03  4056   0.179E-02    0.197E+00
RMM: 287    -0.229695140249E+04    0.84757E-02   -0.20702E-03  4094   0.209E-02    0.206E+00
RMM: 288    -0.229693993749E+04    0.11465E-01   -0.31254E-03  4553   0.244E-02    0.227E+00
RMM: 289    -0.229693287873E+04    0.70588E-02   -0.12862E-03  4025   0.169E-02    0.243E+00
RMM: 290    -0.229693675465E+04   -0.38759E-02   -0.14463E-04  3101   0.693E-03    0.234E+00
RMM: 291    -0.229694755485E+04   -0.10800E-01   -0.22073E-03  4208   0.199E-02    0.210E+00
RMM: 292    -0.229695445565E+04   -0.69008E-02   -0.13801E-03  3817   0.184E-02    0.200E+00
RMM: 293    -0.229696809238E+04   -0.13637E-01   -0.49845E-03  4622   0.297E-02    0.204E+00
RMM: 294    -0.229697588774E+04   -0.77954E-02   -0.20505E-03  4059   0.220E-02    0.225E+00
RMM: 295    -0.229698451569E+04   -0.86280E-02   -0.20197E-03  4398   0.192E-02    0.258E+00
RMM: 296    -0.229698286285E+04    0.16528E-02   -0.16847E-04  3124   0.111E-02    0.247E+00
RMM: 297    -0.229698234236E+04    0.52049E-03   -0.34386E-05  2844   0.415E-03    0.246E+00
RMM: 298    -0.229698187766E+04    0.46470E-03   -0.49887E-06  2756   0.236E-03    0.244E+00
RMM: 299    -0.229697538099E+04    0.64967E-02   -0.73097E-04  3612   0.113E-02    0.220E+00
RMM: 300    -0.229696559789E+04    0.97831E-02   -0.25700E-03  4292   0.219E-02    0.200E+00
RMM: 301    -0.229697131683E+04   -0.57189E-02   -0.42506E-04  3513   0.128E-02    0.213E+00
RMM: 302    -0.229696575673E+04    0.55601E-02   -0.55835E-04  3620   0.106E-02    0.201E+00
RMM: 303    -0.229695570268E+04    0.10054E-01   -0.27718E-03  4439   0.223E-02    0.202E+00
RMM: 304    -0.229694568931E+04    0.10013E-01   -0.27763E-03  4276   0.239E-02    0.217E+00
RMM: 305    -0.229693960426E+04    0.60850E-02   -0.13424E-03  4035   0.163E-02    0.230E+00
RMM: 306    -0.229697872303E+04   -0.39119E-01   -0.31540E-02  4669   0.704E-02    0.234E+00
RMM: 307    -0.229698450905E+04   -0.57860E-02   -0.34081E-03  4087   0.381E-02    0.257E+00
RMM: 308    -0.229699688028E+04   -0.12371E-01   -0.35567E-03  4670   0.234E-02    0.312E+00
RMM: 309    -0.229700699134E+04   -0.10111E-01   -0.17075E-03  4021   0.215E-02    0.350E+00
RMM: 310    -0.229700682975E+04    0.16160E-03   -0.28860E-04  3303   0.120E-02    0.347E+00
RMM: 311    -0.229699527223E+04    0.11558E-01   -0.95785E-04  3636   0.142E-02    0.299E+00
RMM: 312    -0.229698540769E+04    0.98645E-02   -0.15689E-03  4014   0.182E-02    0.261E+00
RMM: 313    -0.229696965273E+04    0.15755E-01   -0.56670E-03  4716   0.316E-02    0.209E+00
RMM: 314    -0.229695145067E+04    0.18202E-01   -0.99551E-03  4799   0.435E-02    0.210E+00
RMM: 315    -0.229695421609E+04   -0.27654E-02   -0.57610E-04  3681   0.184E-02    0.207E+00
RMM: 316    -0.229694872926E+04    0.54868E-02   -0.83049E-04  3937   0.114E-02    0.215E+00
RMM: 317    -0.229695677327E+04   -0.80440E-02   -0.11929E-03  3937   0.155E-02    0.205E+00
RMM: 318    -0.229696731392E+04   -0.10541E-01   -0.29100E-03  4277   0.229E-02    0.209E+00
RMM: 319    -0.229697112132E+04   -0.38074E-02   -0.77971E-04  3542   0.146E-02    0.216E+00
RMM: 320    -0.229697130300E+04   -0.18168E-03   -0.13562E-04  3042   0.598E-03    0.217E+00
RMM: 321    -0.229697407939E+04   -0.27764E-02   -0.27008E-04  3497   0.759E-03    0.223E+00
RMM: 322    -0.229697778812E+04   -0.37087E-02   -0.30548E-04  3290   0.842E-03    0.236E+00
RMM: 323    -0.229697875608E+04   -0.96795E-03   -0.92340E-05  2972   0.622E-03    0.239E+00
RMM: 324    -0.229697991152E+04   -0.11554E-02   -0.62000E-05  2972   0.456E-03    0.243E+00
RMM: 325    -0.229697987853E+04    0.32999E-04   -0.70430E-06  2706   0.322E-03    0.243E+00
RMM: 326    -0.229694977120E+04    0.30107E-01   -0.18980E-02  4681   0.574E-02    0.211E+00
RMM: 327    -0.229694292866E+04    0.68425E-02   -0.33585E-03  4039   0.366E-02    0.226E+00
RMM: 328    -0.229693588122E+04    0.70474E-02   -0.24197E-03  4567   0.190E-02    0.242E+00
RMM: 329    -0.229693114285E+04    0.47384E-02   -0.64584E-04  3611   0.134E-02    0.253E+00
RMM: 330    -0.229693934402E+04   -0.82012E-02   -0.84214E-04  3739   0.129E-02    0.234E+00
RMM: 331    -0.229695545969E+04   -0.16116E-01   -0.56878E-03  4558   0.328E-02    0.203E+00
RMM: 332    -0.229697830169E+04   -0.22842E-01   -0.13464E-02  4775   0.512E-02    0.235E+00
RMM: 333    -0.229699253655E+04   -0.14235E-01   -0.59167E-03  4615   0.360E-02    0.292E+00
RMM: 334    -0.229701093226E+04   -0.18396E-01   -0.53244E-03  4858   0.308E-02    0.364E+00
RMM: 335    -0.229702786652E+04   -0.16934E-01   -0.33726E-03  4340   0.288E-02    0.413E+00
RMM: 336    -0.229703708546E+04   -0.92189E-02   -0.14874E-03  4088   0.193E-02    0.435E+00
RMM: 337    -0.229703193170E+04    0.51538E-02   -0.16233E-04  3155   0.983E-03    0.422E+00
RMM: 338    -0.229702253147E+04    0.94002E-02   -0.55621E-04  3532   0.111E-02    0.399E+00
RMM: 339    -0.229699696933E+04    0.25562E-01   -0.51367E-03  4538   0.302E-02    0.305E+00
RMM: 340    -0.229697565909E+04    0.21310E-01   -0.84659E-03  4626   0.416E-02    0.225E+00
RMM: 341    -0.229697832423E+04   -0.26651E-02   -0.97512E-04  3710   0.235E-02    0.241E+00
RMM: 342    -0.229698165719E+04   -0.33330E-02   -0.25988E-04  3148   0.883E-03    0.253E+00
RMM: 343    -0.229698076341E+04    0.89378E-03   -0.40777E-05  2868   0.436E-03    0.249E+00
RMM: 344    -0.229697910120E+04    0.16622E-02   -0.59745E-05  2895   0.359E-03    0.243E+00
RMM: 345    -0.229697919302E+04   -0.91826E-04   -0.63417E-06  2585   0.254E-03    0.244E+00
RMM: 346    -0.229698316255E+04   -0.39695E-02   -0.26561E-04  3139   0.685E-03    0.262E+00
RMM: 347    -0.229698602374E+04   -0.28612E-02   -0.17582E-04  2986   0.657E-03    0.273E+00
RMM: 348    -0.229698497331E+04    0.10504E-02   -0.21917E-05  2748   0.395E-03    0.268E+00
RMM: 349    -0.229697918569E+04    0.57876E-02   -0.48372E-04  3426   0.951E-03    0.245E+00
RMM: 350    -0.229698230396E+04   -0.31183E-02   -0.11762E-04  2969   0.722E-03    0.259E+00
RMM: 351    -0.229706163315E+04   -0.79329E-01   -0.44833E-02  4771   0.870E-02    0.482E+00
RMM: 352    -0.229700591747E+04    0.55716E-01   -0.12659E-02  4600   0.668E-02    0.323E+00
RMM: 353    -0.229697299776E+04    0.32920E-01   -0.19825E-02  4593   0.542E-02    0.211E+00
RMM: 354    -0.229697305176E+04   -0.54000E-04   -0.20298E-03  3868   0.333E-02    0.218E+00
RMM: 355    -0.229696885089E+04    0.42009E-02   -0.12326E-03  3992   0.140E-02    0.206E+00
RMM: 356    -0.229696613617E+04    0.27147E-02   -0.31384E-04  3295   0.985E-03    0.201E+00
RMM: 357    -0.229695737629E+04    0.87599E-02   -0.21416E-03  4293   0.191E-02    0.198E+00
RMM: 358    -0.229695352786E+04    0.38484E-02   -0.67173E-04  3553   0.140E-02    0.202E+00
RMM: 359    -0.229694367312E+04    0.98547E-02   -0.24883E-03  4444   0.205E-02    0.219E+00
RMM: 360    -0.229693185235E+04    0.11821E-01   -0.27428E-03  4287   0.245E-02    0.244E+00
RMM: 361    -0.229692944559E+04    0.24068E-02   -0.52245E-04  3463   0.109E-02    0.248E+00
RMM: 362    -0.229692213626E+04    0.73093E-02   -0.79218E-04  4000   0.123E-02    0.263E+00
RMM: 363    -0.229692082464E+04    0.13116E-02   -0.10422E-04  3006   0.669E-03    0.266E+00
RMM: 364    -0.229692090135E+04   -0.76706E-04   -0.20197E-05  2749   0.258E-03    0.266E+00
RMM: 365    -0.229691851050E+04    0.23908E-02   -0.75211E-05  3034   0.440E-03    0.271E+00
RMM: 366    -0.229693957338E+04   -0.21063E-01   -0.59848E-03  4481   0.325E-02    0.224E+00
RMM: 367    -0.229694099493E+04   -0.14215E-02   -0.61270E-04  3464   0.166E-02    0.218E+00
RMM: 368    -0.229693934438E+04    0.16505E-02   -0.81491E-05  2965   0.418E-03    0.221E+00
RMM: 369    -0.229693968329E+04   -0.33891E-03   -0.13419E-05  2706   0.271E-03    0.220E+00
RMM: 370    -0.229694108414E+04   -0.14009E-02   -0.63930E-05  3028   0.385E-03    0.215E+00
RMM: 371    -0.229690197683E+04    0.39107E-01   -0.18152E-02  4632   0.549E-02    0.297E+00
RMM: 372    -0.229689489442E+04    0.70824E-02   -0.20002E-03  3925   0.293E-02    0.310E+00
RMM: 373    -0.229689488500E+04    0.94259E-05   -0.40088E-04  3416   0.717E-03    0.310E+00
RMM: 374    -0.229690729773E+04   -0.12413E-01   -0.12151E-03  3791   0.145E-02    0.289E+00
RMM: 375    -0.229692045517E+04   -0.13157E-01   -0.23678E-03  4218   0.218E-02    0.259E+00
RMM: 376    -0.229691270217E+04    0.77530E-02   -0.30461E-04  3333   0.107E-02    0.271E+00
RMM: 377    -0.229691856151E+04   -0.58593E-02   -0.41758E-04  3634   0.907E-03    0.258E+00
RMM: 378    -0.229691605331E+04    0.25082E-02   -0.61381E-05  2903   0.528E-03    0.262E+00
RMM: 379    -0.229692291227E+04   -0.68590E-02   -0.42537E-04  3365   0.883E-03    0.249E+00
RMM: 380    -0.229693151579E+04   -0.86035E-02   -0.88230E-04  3871   0.135E-02    0.232E+00
RMM: 381    -0.229697019331E+04   -0.38678E-01   -0.30748E-02  4903   0.733E-02    0.189E+00
RMM: 382    -0.229700873204E+04   -0.38539E-01   -0.25450E-02  4764   0.733E-02    0.343E+00
RMM: 383    -0.229703790080E+04   -0.29169E-01   -0.13851E-02  5034   0.536E-02    0.418E+00
RMM: 384    -0.229704234252E+04   -0.44417E-02   -0.25604E-03  4447   0.253E-02    0.424E+00
RMM: 385    -0.229704086636E+04    0.14762E-02   -0.37382E-04  3224   0.932E-03    0.422E+00
RMM: 386    -0.229711171436E+04   -0.70848E-01   -0.20628E-02  4727   0.571E-02    0.451E+00
RMM: 387    -0.229710411293E+04    0.76014E-02   -0.11662E-03  3674   0.278E-02    0.455E+00
RMM: 388    -0.229710347623E+04    0.63670E-03   -0.19566E-04  3162   0.693E-03    0.456E+00
RMM: 389    -0.229710578387E+04   -0.23076E-02   -0.45604E-05  2949   0.437E-03    0.454E+00
RMM: 390    -0.229708776916E+04    0.18015E-01   -0.17057E-03  4012   0.171E-02    0.464E+00
RMM: 391    -0.229707282493E+04    0.14944E-01   -0.13546E-03  3784   0.172E-02    0.464E+00
RMM: 392    -0.229707985310E+04   -0.70282E-02   -0.34047E-04  3488   0.923E-03    0.462E+00
RMM: 393    -0.229712700900E+04   -0.47156E-01   -0.10236E-02  4439   0.403E-02    0.437E+00
RMM: 394    -0.229715132771E+04   -0.24319E-01   -0.41377E-03  4036   0.336E-02    0.410E+00
RMM: 395    -0.229715419284E+04   -0.28651E-02   -0.88088E-04  3804   0.123E-02    0.407E+00
RMM: 396    -0.229719882730E+04   -0.44634E-01   -0.21741E-02  4756   0.612E-02    0.318E+00
RMM: 397    -0.229719573688E+04    0.30904E-02   -0.11378E-03  3597   0.253E-02    0.325E+00
RMM: 398    -0.229719602332E+04   -0.28644E-03   -0.21339E-04  3203   0.495E-03    0.325E+00
RMM: 399    -0.229719767849E+04   -0.16552E-02   -0.58159E-05  2905   0.444E-03    0.321E+00
RMM: 400    -0.229719930273E+04   -0.16242E-02   -0.12909E-04  3266   0.576E-03    0.317E+00
RMM: 401    -0.229718606093E+04    0.13242E-01   -0.28580E-03  4180   0.227E-02
   1 F= -.23174681E+04 E0= -.23174681E+04  d E =-.231747E+04  mag=     3.1686
