       N       E                     dE             d eps       ncg     rms          rms(c)
DAV:   1     0.131871692450E+05    0.13187E+05   -0.84520E+05  4536   0.144E+03
DAV:   2    -0.101020233919E+04   -0.14197E+05   -0.13571E+05  4968   0.331E+02
DAV:   3    -0.249230971011E+04   -0.14821E+04   -0.14639E+04  5560   0.115E+02
DAV:   4    -0.253834337160E+04   -0.46034E+02   -0.45778E+02  6744   0.294E+01
DAV:   5    -0.253928588972E+04   -0.94252E+00   -0.94031E+00  6312   0.350E+00    0.171E+02
RMM:   6    -0.150243183039E+04    0.10369E+04   -0.19867E+03  4490   0.384E+01    0.725E+01
RMM:   7    -0.167170298519E+04   -0.16927E+03   -0.29025E+02  5194   0.144E+01    0.486E+01
RMM:   8    -0.172948785160E+04   -0.57785E+02   -0.49665E+01  5297   0.738E+00    0.422E+01
RMM:   9    -0.180924463274E+04   -0.79757E+02   -0.63066E+01  5158   0.748E+00    0.364E+01
RMM:  10    -0.192604252817E+04   -0.11680E+03   -0.57852E+01  5515   0.726E+00    0.267E+01
RMM:  11    -0.199211021818E+04   -0.66068E+02   -0.25488E+01  5419   0.432E+00    0.225E+01
RMM:  12    -0.206805438203E+04   -0.75944E+02   -0.28613E+01  5063   0.426E+00    0.155E+01
RMM:  13    -0.216315184402E+04   -0.95097E+02   -0.51520E+01  4617   0.538E+00    0.117E+01
RMM:  14    -0.227158145735E+04   -0.10843E+03   -0.92493E+01  4695   0.677E+00    0.990E+00
RMM:  15    -0.231151429916E+04   -0.39933E+02   -0.36796E+01  5003   0.471E+00    0.112E+01
RMM:  16    -0.232355557133E+04   -0.12041E+02   -0.13400E+01  4993   0.256E+00    0.446E+00
RMM:  17    -0.233219314797E+04   -0.86376E+01   -0.67923E+00  4549   0.177E+00    0.385E+00
RMM:  18    -0.233339388655E+04   -0.12007E+01   -0.91280E-01  4986   0.101E+00    0.308E+00
RMM:  19    -0.233574516771E+04   -0.23513E+01   -0.11851E+00  4490   0.638E-01    0.138E+00
RMM:  20    -0.233627591767E+04   -0.53075E+00   -0.61019E-01  4505   0.514E-01    0.101E+00
RMM:  21    -0.233640582553E+04   -0.12991E+00   -0.14319E-01  4676   0.246E-01    0.531E-01
RMM:  22    -0.233650625278E+04   -0.10043E+00   -0.76115E-02  4657   0.153E-01    0.319E-01
RMM:  23    -0.233656734072E+04   -0.61088E-01   -0.29981E-02  4560   0.118E-01    0.227E-01
RMM:  24    -0.233659636342E+04   -0.29023E-01   -0.13043E-02  4683   0.732E-02    0.131E-01
RMM:  25    -0.233661912391E+04   -0.22760E-01   -0.47092E-03  4530   0.534E-02    0.889E-02
RMM:  26    -0.233663807861E+04   -0.18955E-01   -0.45352E-03  4498   0.459E-02    0.566E-02
RMM:  27    -0.233664582057E+04   -0.77420E-02   -0.21955E-03  4786   0.370E-02    0.323E-02
RMM:  28    -0.233664931274E+04   -0.34922E-02   -0.11583E-03  4329   0.211E-02    0.245E-02
RMM:  29    -0.233665006445E+04   -0.75172E-03   -0.24003E-04  4070   0.146E-02    0.134E-02
RMM:  30    -0.233665036616E+04   -0.30170E-03   -0.10010E-04  3704   0.671E-03    0.542E-03
RMM:  31    -0.233665049463E+04   -0.12847E-03   -0.30419E-05  3198   0.583E-03    0.291E-03
RMM:  32    -0.233665054095E+04   -0.46326E-04   -0.12965E-05  2952   0.336E-03    0.219E-03
RMM:  33    -0.233665056856E+04   -0.27610E-04   -0.64750E-06  2835   0.267E-03    0.127E-03
RMM:  34    -0.233665057878E+04   -0.10211E-04   -0.37914E-06  2510   0.215E-03    0.814E-04
RMM:  35    -0.233665058113E+04   -0.23588E-05   -0.17787E-06  2423   0.164E-03
   1 F= -.23583066E+04 E0= -.23583066E+04  d E =-.235831E+04  mag=     3.9999
       N       E                     dE             d eps       ncg     rms          rms(c)
DAV:   1    -0.233678935245E+04   -0.13877E+00   -0.91777E+00  5056   0.282E+00    0.877E-01
RMM:   2    -0.233690468283E+04   -0.11533E+00   -0.11362E+00  6480   0.580E-01    0.102E+00
RMM:   3    -0.233690274776E+04    0.19351E-02   -0.14002E-01  6218   0.219E-01    0.600E-01
RMM:   4    -0.233689953272E+04    0.32150E-02   -0.13253E-02  5892   0.493E-02    0.428E-01
RMM:   5    -0.233689860050E+04    0.93222E-03   -0.31942E-03  5545   0.268E-02    0.308E-01
RMM:   6    -0.233689766482E+04    0.93568E-03   -0.25623E-03  5509   0.272E-02    0.154E-01
RMM:   7    -0.233689768200E+04   -0.17187E-04   -0.99185E-04  4789   0.192E-02    0.130E-01
RMM:   8    -0.233689748265E+04    0.19936E-03   -0.22538E-04  3489   0.843E-03    0.305E-02
RMM:   9    -0.233689749562E+04   -0.12978E-04   -0.43386E-05  2978   0.520E-03    0.140E-02
RMM:  10    -0.233689750219E+04   -0.65646E-05   -0.10156E-05  2929   0.325E-03
   2 F= -.23585527E+04 E0= -.23585527E+04  d E =-.246076E+00  mag=     4.0000
       N       E                     dE             d eps       ncg     rms          rms(c)
DAV:   1    -0.233654413569E+04    0.35336E+00   -0.90556E+01  4592   0.899E+00    0.271E+00
RMM:   2    -0.233772334716E+04   -0.11792E+01   -0.10964E+01  6494   0.196E+00    0.388E+00
RMM:   3    -0.233756465368E+04    0.15869E+00   -0.10693E+00  6238   0.639E-01    0.173E+00
RMM:   4    -0.233754996185E+04    0.14692E-01   -0.13796E-01  6097   0.157E-01    0.149E+00
RMM:   5    -0.233753356615E+04    0.16396E-01   -0.32148E-02  6328   0.836E-02    0.771E-01
RMM:   6    -0.233753366607E+04   -0.99925E-04   -0.22962E-02  5576   0.793E-02    0.780E-01
RMM:   7    -0.233752782597E+04    0.58401E-02   -0.12758E-02  6010   0.654E-02    0.303E-01
RMM:   8    -0.233752696788E+04    0.85809E-03   -0.18042E-03  5360   0.219E-02    0.112E-01
RMM:   9    -0.233752698103E+04   -0.13152E-04   -0.36532E-04  3892   0.138E-02    0.416E-02
RMM:  10    -0.233752701645E+04   -0.35415E-04   -0.10749E-04  3302   0.647E-03    0.180E-02
RMM:  11    -0.233752705153E+04   -0.35081E-04   -0.26717E-05  2990   0.515E-03    0.932E-03
RMM:  12    -0.233752707763E+04   -0.26100E-04   -0.12534E-05  2934   0.374E-03    0.569E-03
RMM:  13    -0.233752709603E+04   -0.18399E-04   -0.58987E-06  2851   0.313E-03    0.409E-03
RMM:  14    -0.233752710747E+04   -0.11447E-04   -0.41290E-06  2798   0.228E-03    0.271E-03
RMM:  15    -0.233752711577E+04   -0.82929E-05   -0.29690E-06  2655   0.204E-03
   3 F= -.23591794E+04 E0= -.23591794E+04  d E =-.626784E+00  mag=     4.0000
       N       E                     dE             d eps       ncg     rms          rms(c)
DAV:   1    -0.233760455901E+04   -0.77452E-01   -0.98868E+00  4656   0.310E+00    0.842E-01
RMM:   2    -0.233771583747E+04   -0.11128E+00   -0.10783E+00  6572   0.625E-01    0.108E+00
RMM:   3    -0.233771546973E+04    0.36773E-03   -0.10795E-01  6406   0.207E-01    0.693E-01
RMM:   4    -0.233771099891E+04    0.44708E-02   -0.11838E-02  5870   0.520E-02    0.322E-01
RMM:   5    -0.233771102542E+04   -0.26507E-04   -0.30914E-03  5848   0.296E-02    0.323E-01
RMM:   6    -0.233770986117E+04    0.11643E-02   -0.26586E-03  5396   0.319E-02    0.100E-01
RMM:   7    -0.233770988293E+04   -0.21765E-04   -0.52700E-04  4346   0.181E-02    0.891E-02
RMM:   8    -0.233770978154E+04    0.10139E-03   -0.13913E-04  3104   0.633E-03    0.292E-02
RMM:   9    -0.233770976545E+04    0.16094E-04   -0.37410E-05  2975   0.468E-03    0.136E-02
RMM:  10    -0.233770976461E+04    0.84266E-06   -0.22963E-05  2966   0.384E-03
   4 F= -.23593610E+04 E0= -.23593610E+04  d E =-.181548E+00  mag=     4.0000
       N       E                     dE             d eps       ncg     rms          rms(c)
DAV:   1    -0.233768816819E+04    0.21597E-01   -0.28583E+01  4560   0.525E+00    0.141E+00
RMM:   2    -0.233799436407E+04   -0.30620E+00   -0.28540E+00  6558   0.103E+00    0.200E+00
RMM:   3    -0.233797564390E+04    0.18720E-01   -0.28557E-01  6407   0.338E-01    0.105E+00
RMM:   4    -0.233796758009E+04    0.80638E-02   -0.34242E-02  5904   0.869E-02    0.634E-01
RMM:   5    -0.233796535891E+04    0.22212E-02   -0.90660E-03  6193   0.488E-02    0.467E-01
RMM:   6    -0.233796318152E+04    0.21774E-02   -0.65287E-03  5110   0.507E-02    0.195E-01
RMM:   7    -0.233796317133E+04    0.10194E-04   -0.17808E-03  4805   0.339E-02    0.157E-01
RMM:   8    -0.233796286738E+04    0.30395E-03   -0.45373E-04  4103   0.107E-02    0.526E-02
RMM:   9    -0.233796283119E+04    0.36193E-04   -0.95533E-05  3127   0.706E-03    0.214E-02
RMM:  10    -0.233796283341E+04   -0.22242E-05   -0.56050E-05  3184   0.552E-03
   5 F= -.23596126E+04 E0= -.23596125E+04  d E =-.251562E+00  mag=     3.9999
       N       E                     dE             d eps       ncg     rms          rms(c)
DAV:   1    -0.233790936290E+04    0.53468E-01   -0.28062E+01  4560   0.532E+00    0.141E+00
RMM:   2    -0.233820916686E+04   -0.29980E+00   -0.27790E+00  6532   0.103E+00    0.205E+00
RMM:   3    -0.233818985142E+04    0.19315E-01   -0.28177E-01  6385   0.342E-01    0.105E+00
RMM:   4    -0.233818040900E+04    0.94424E-02   -0.30795E-02  5635   0.855E-02    0.520E-01
RMM:   5    -0.233818097168E+04   -0.56268E-03   -0.92391E-03  6119   0.520E-02    0.552E-01
RMM:   6    -0.233817767294E+04    0.32987E-02   -0.68710E-03  5361   0.516E-02    0.194E-01
RMM:   7    -0.233817763960E+04    0.33343E-04   -0.16100E-03  4973   0.307E-02    0.154E-01
RMM:   8    -0.233817734197E+04    0.29762E-03   -0.42686E-04  3822   0.102E-02    0.510E-02
RMM:   9    -0.233817730611E+04    0.35869E-04   -0.88431E-05  3162   0.680E-03    0.215E-02
RMM:  10    -0.233817730799E+04   -0.18829E-05   -0.48195E-05  3127   0.541E-03
   6 F= -.23598258E+04 E0= -.23598257E+04  d E =-.213205E+00  mag=     3.9993
       N       E                     dE             d eps       ncg     rms          rms(c)
DAV:   1    -0.233819645476E+04   -0.19149E-01   -0.14025E+01  4560   0.379E+00    0.968E-01
RMM:   2    -0.233832596349E+04   -0.12951E+00   -0.11961E+00  6484   0.698E-01    0.141E+00
RMM:   3    -0.233831619128E+04    0.97722E-02   -0.12145E-01  6312   0.236E-01    0.716E-01
RMM:   4    -0.233831159658E+04    0.45947E-02   -0.13005E-02  5186   0.588E-02    0.321E-01
RMM:   5    -0.233831238642E+04   -0.78984E-03   -0.53269E-03  6024   0.431E-02    0.399E-01
RMM:   6    -0.233831055253E+04    0.18339E-02   -0.34090E-03  5829   0.352E-02    0.110E-01
RMM:   7    -0.233831056157E+04   -0.90419E-05   -0.46615E-04  4120   0.157E-02    0.846E-02
RMM:   8    -0.233831046824E+04    0.93328E-04   -0.13699E-04  3078   0.650E-03    0.337E-02
RMM:   9    -0.233831045331E+04    0.14930E-04   -0.31435E-05  3010   0.457E-03    0.148E-02
RMM:  10    -0.233831045414E+04   -0.82488E-06   -0.21331E-05  2992   0.412E-03
   7 F= -.23599584E+04 E0= -.23599582E+04  d E =-.132664E+00  mag=     3.9970
       N       E                     dE             d eps       ncg     rms          rms(c)
DAV:   1    -0.233835463708E+04   -0.44184E-01   -0.70993E+00  4592   0.272E+00    0.667E-01
RMM:   2    -0.233840268475E+04   -0.48048E-01   -0.46621E-01  6330   0.478E-01    0.797E-01
RMM:   3    -0.233840155096E+04    0.11338E-02   -0.46329E-02  6150   0.162E-01    0.585E-01
RMM:   4    -0.233839830508E+04    0.32459E-02   -0.54613E-03  5387   0.439E-02    0.238E-01
RMM:   5    -0.233839864492E+04   -0.33984E-03   -0.27176E-03  5654   0.317E-02    0.279E-01
RMM:   6    -0.233839768416E+04    0.96076E-03   -0.17333E-03  5377   0.259E-02    0.669E-02
RMM:   7    -0.233839770990E+04   -0.25735E-04   -0.30427E-04  3741   0.149E-02    0.764E-02
RMM:   8    -0.233839763640E+04    0.73492E-04   -0.81907E-05  2957   0.546E-03    0.175E-02
RMM:   9    -0.233839763105E+04    0.53579E-05   -0.22082E-05  2994   0.348E-03
   8 F= -.23600457E+04 E0= -.23600452E+04  d E =-.872610E-01  mag=     3.9918
       N       E                     dE             d eps       ncg     rms          rms(c)
DAV:   1    -0.233830894877E+04    0.88688E-01   -0.34904E+01  4520   0.599E+00    0.143E+00
RMM:   2    -0.233856493406E+04   -0.25599E+00   -0.24570E+00  6424   0.106E+00    0.178E+00
RMM:   3    -0.233855929108E+04    0.56430E-02   -0.24748E-01  6242   0.359E-01    0.122E+00
RMM:   4    -0.233854519465E+04    0.14096E-01   -0.26803E-02  5366   0.932E-02    0.496E-01
RMM:   5    -0.233854799515E+04   -0.28005E-02   -0.13811E-02  5904   0.697E-02    0.649E-01
RMM:   6    -0.233854276475E+04    0.52304E-02   -0.80961E-03  5793   0.529E-02    0.148E-01
RMM:   7    -0.233854293148E+04   -0.16673E-03   -0.12946E-03  5058   0.248E-02    0.163E-01
RMM:   8    -0.233854261820E+04    0.31328E-03   -0.40505E-04  3609   0.102E-02    0.426E-02
RMM:   9    -0.233854261207E+04    0.61342E-05   -0.97761E-05  3469   0.661E-03
   9 F= -.23601908E+04 E0= -.23601878E+04  d E =-.145136E+00  mag=     3.9398
       N       E                     dE             d eps       ncg     rms          rms(c)
DAV:   1    -0.233856818852E+04   -0.25570E-01   -0.31197E+00  4688   0.180E+00    0.413E-01
RMM:   2    -0.233858550289E+04   -0.17314E-01   -0.18278E-01  6393   0.312E-01    0.315E-01
RMM:   3    -0.233858693887E+04   -0.14360E-02   -0.19756E-02  5964   0.104E-01    0.346E-01
RMM:   4    -0.233858557047E+04    0.13684E-02   -0.19496E-03  5648   0.274E-02    0.142E-01
RMM:   5    -0.233858580134E+04   -0.23087E-03   -0.14530E-03  5327   0.228E-02    0.186E-01
RMM:   6    -0.233858542215E+04    0.37919E-03   -0.61362E-04  4719   0.166E-02    0.755E-02
RMM:   7    -0.233858543170E+04   -0.95563E-05   -0.15150E-04  3031   0.643E-03    0.755E-02
RMM:   8    -0.233858540192E+04    0.29787E-04   -0.39005E-05  2927   0.486E-03    0.319E-02
RMM:   9    -0.233858542973E+04   -0.27815E-04   -0.17582E-05  2965   0.299E-03    0.287E-02
RMM:  10    -0.233858548115E+04   -0.51421E-04   -0.22886E-05  2967   0.355E-03    0.235E-02
RMM:  11    -0.233858552231E+04   -0.41160E-04   -0.23771E-05  2938   0.361E-03    0.193E-02
RMM:  12    -0.233858558565E+04   -0.63334E-04   -0.78390E-05  3259   0.527E-03    0.143E-02
RMM:  13    -0.233858562695E+04   -0.41304E-04   -0.84655E-05  3125   0.569E-03    0.153E-02
RMM:  14    -0.233858563591E+04   -0.89606E-05   -0.18536E-05  2877   0.393E-03
  10 F= -.23602344E+04 E0= -.23602265E+04  d E =-.435429E-01  mag=     3.7402
       N       E                     dE             d eps       ncg     rms          rms(c)
DAV:   1    -0.233860594231E+04   -0.20315E-01   -0.51332E+00  4544   0.229E+00    0.684E-01
RMM:   2    -0.233863712386E+04   -0.31182E-01   -0.29501E-01  6341   0.393E-01    0.703E-01
RMM:   3    -0.233863997104E+04   -0.28472E-02   -0.32650E-02  5952   0.136E-01    0.110E+00
RMM:   4    -0.233864085647E+04   -0.88543E-03   -0.42309E-03  5827   0.284E-02    0.109E+00
RMM:   5    -0.233863533117E+04    0.55253E-02   -0.64180E-03  5301   0.375E-02    0.598E-01
RMM:   6    -0.233863444133E+04    0.88984E-03   -0.39900E-03  5698   0.301E-02    0.655E-01
RMM:   7    -0.233863111928E+04    0.33220E-02   -0.43931E-03  5320   0.322E-02    0.470E-01
RMM:   8    -0.233862878273E+04    0.23365E-02   -0.38802E-03  5323   0.329E-02    0.529E-01
RMM:   9    -0.233862368294E+04    0.50998E-02   -0.33946E-03  5196   0.304E-02    0.637E-01
RMM:  10    -0.233862366388E+04    0.19058E-04   -0.18786E-04  3455   0.118E-02    0.639E-01
RMM:  11    -0.233862232668E+04    0.13372E-02   -0.18688E-04  3699   0.720E-03    0.679E-01
RMM:  12    -0.233863116677E+04   -0.88401E-02   -0.12672E-02  5021   0.527E-02    0.578E-01
RMM:  13    -0.233863699854E+04   -0.58318E-02   -0.95221E-03  4836   0.521E-02    0.111E+00
RMM:  14    -0.233863357105E+04    0.34275E-02   -0.15058E-03  4335   0.229E-02    0.704E-01
RMM:  15    -0.233863170495E+04    0.18661E-02   -0.14444E-03  4572   0.179E-02    0.557E-01
RMM:  16    -0.233862944847E+04    0.22565E-02   -0.24517E-03  4934   0.243E-02    0.427E-01
RMM:  17    -0.233862790770E+04    0.15408E-02   -0.11871E-03  4371   0.185E-02    0.453E-01
RMM:  18    -0.233862770560E+04    0.20210E-03   -0.12671E-04  3312   0.708E-03    0.460E-01
RMM:  19    -0.233862847909E+04   -0.77349E-03   -0.15322E-04  3408   0.669E-03    0.433E-01
RMM:  20    -0.233863167480E+04   -0.31957E-02   -0.46721E-03  4930   0.309E-02    0.530E-01
RMM:  21    -0.233863333348E+04   -0.16587E-02   -0.15920E-03  4297   0.217E-02    0.697E-01
RMM:  22    -0.233863095970E+04    0.23738E-02   -0.19045E-03  4536   0.202E-02    0.450E-01
RMM:  23    -0.233862841725E+04    0.25425E-02   -0.35074E-03  4963   0.275E-02    0.449E-01
RMM:  24    -0.233862368608E+04    0.47312E-02   -0.43166E-03  5075   0.311E-02    0.680E-01
RMM:  25    -0.233862526094E+04   -0.15749E-02   -0.21293E-04  3358   0.109E-02    0.597E-01
RMM:  26    -0.233862610945E+04   -0.84851E-03   -0.13583E-04  3296   0.621E-03    0.550E-01
RMM:  27    -0.233862779002E+04   -0.16806E-02   -0.56363E-04  4311   0.115E-02    0.463E-01
RMM:  28    -0.233862896530E+04   -0.11753E-02   -0.51443E-04  4175   0.114E-02    0.407E-01
RMM:  29    -0.233862966365E+04   -0.69835E-03   -0.27478E-04  3753   0.857E-03    0.390E-01
RMM:  30    -0.233862957535E+04    0.88301E-04   -0.13115E-05  2870   0.393E-03    0.391E-01
RMM:  31    -0.233862960228E+04   -0.26929E-04   -0.38416E-06  2590   0.149E-03    0.391E-01
RMM:  32    -0.233862970582E+04   -0.10354E-03   -0.58381E-06  2672   0.183E-03    0.389E-01
RMM:  33    -0.233863012157E+04   -0.41576E-03   -0.88425E-05  3136   0.453E-03    0.383E-01
RMM:  34    -0.233863020493E+04   -0.83355E-04   -0.15159E-05  2758   0.293E-03    0.376E-01
RMM:  35    -0.233863042214E+04   -0.21721E-03   -0.38909E-05  2922   0.340E-03    0.369E-01
RMM:  36    -0.233863061636E+04   -0.19423E-03   -0.31546E-05  2889   0.350E-03    0.362E-01
RMM:  37    -0.233863117352E+04   -0.55716E-03   -0.18976E-04  3583   0.709E-03    0.366E-01
RMM:  38    -0.233863062878E+04    0.54474E-03   -0.12985E-04  3128   0.646E-03    0.353E-01
RMM:  39    -0.233863027278E+04    0.35600E-03   -0.89478E-05  3016   0.497E-03    0.358E-01
RMM:  40    -0.233862957537E+04    0.69741E-03   -0.27851E-04  3815   0.806E-03    0.378E-01
RMM:  41    -0.233862914334E+04    0.43203E-03   -0.13269E-04  3183   0.642E-03    0.399E-01
RMM:  42    -0.233862966195E+04   -0.51862E-03   -0.92298E-05  2981   0.532E-03    0.373E-01
RMM:  43    -0.233863032692E+04   -0.66497E-03   -0.27421E-04  3777   0.811E-03    0.351E-01
RMM:  44    -0.233863170507E+04   -0.13782E-02   -0.11965E-03  4727   0.163E-02    0.362E-01
RMM:  45    -0.233863266915E+04   -0.96408E-03   -0.67920E-04  4261   0.134E-02    0.407E-01
RMM:  46    -0.233863218282E+04    0.48632E-03   -0.72166E-05  2993   0.574E-03    0.373E-01
RMM:  47    -0.233863166556E+04    0.51726E-03   -0.14613E-04  3305   0.594E-03    0.352E-01
RMM:  48    -0.233863202856E+04   -0.36300E-03   -0.43539E-05  2781   0.412E-03    0.374E-01
RMM:  49    -0.233863138071E+04    0.64785E-03   -0.19183E-04  3242   0.679E-03    0.347E-01
RMM:  50    -0.233863048566E+04    0.89505E-03   -0.56658E-04  4464   0.112E-02    0.349E-01
RMM:  51    -0.233862981835E+04    0.66731E-03   -0.37953E-04  3821   0.962E-03    0.372E-01
RMM:  52    -0.233862567322E+04    0.41451E-02   -0.44848E-03  5250   0.306E-02    0.581E-01
RMM:  53    -0.233862506454E+04    0.60867E-03   -0.41120E-04  3856   0.134E-02    0.623E-01
RMM:  54    -0.233862494877E+04    0.11577E-03   -0.81258E-05  3027   0.376E-03    0.629E-01
RMM:  55    -0.233862465631E+04    0.29246E-03   -0.19347E-05  2857   0.307E-03    0.650E-01
RMM:  56    -0.233862422912E+04    0.42719E-03   -0.25418E-05  2896   0.326E-03    0.675E-01
RMM:  57    -0.233862610066E+04   -0.18715E-02   -0.38705E-04  3774   0.928E-03    0.558E-01
RMM:  58    -0.233862906957E+04   -0.29689E-02   -0.23644E-03  4975   0.230E-02    0.368E-01
RMM:  59    -0.233863086459E+04   -0.17950E-02   -0.21532E-03  4715   0.231E-02    0.322E-01
RMM:  60    -0.233863228331E+04   -0.14187E-02   -0.14330E-03  4967   0.184E-02    0.377E-01
RMM:  61    -0.233863299960E+04   -0.71629E-03   -0.41754E-04  4035   0.110E-02    0.421E-01
RMM:  62    -0.233863245546E+04    0.54415E-03   -0.97098E-05  3044   0.616E-03    0.389E-01
RMM:  63    -0.233863180929E+04    0.64616E-03   -0.22171E-04  3639   0.726E-03    0.362E-01
RMM:  64    -0.233863076758E+04    0.10417E-02   -0.68001E-04  4559   0.123E-02    0.342E-01
RMM:  65    -0.233863033514E+04    0.43243E-03   -0.20802E-04  3455   0.788E-03    0.351E-01
RMM:  66    -0.233862988293E+04    0.45221E-03   -0.16977E-04  3596   0.653E-03    0.362E-01
RMM:  67    -0.233862987134E+04    0.11589E-04   -0.13048E-05  2806   0.383E-03    0.363E-01
RMM:  68    -0.233863004574E+04   -0.17440E-03   -0.12430E-05  2556   0.214E-03    0.358E-01
RMM:  69    -0.233863006058E+04   -0.14839E-04   -0.10973E-06  2087   0.126E-03    0.357E-01
RMM:  70    -0.233863006132E+04   -0.73746E-06   -0.24552E-07  1220   0.659E-04
  11 F= -.23602792E+04 E0= -.23602731E+04  d E =-.448468E-01  mag=     3.9679
       N       E                     dE             d eps       ncg     rms          rms(c)
DAV:   1    -0.233863901311E+04   -0.89525E-02   -0.99113E+00  4552   0.320E+00    0.109E+00
RMM:   2    -0.233870531727E+04   -0.66304E-01   -0.58538E-01  6337   0.550E-01    0.125E+00
RMM:   3    -0.233870715237E+04   -0.18351E-02   -0.64862E-02  5810   0.185E-01    0.181E+00
RMM:   4    -0.233870933978E+04   -0.21874E-02   -0.11764E-02  5789   0.504E-02    0.173E+00
RMM:   5    -0.233869841445E+04    0.10925E-01   -0.22408E-02  5516   0.705E-02    0.117E+00
RMM:   6    -0.233868800866E+04    0.10406E-01   -0.89145E-03  5936   0.459E-02    0.911E-01
RMM:   7    -0.233867903963E+04    0.89690E-02   -0.90486E-03  5141   0.455E-02    0.109E+00
RMM:   8    -0.233867088023E+04    0.81594E-02   -0.35451E-03  4814   0.357E-02    0.132E+00
RMM:   9    -0.233868204835E+04   -0.11168E-01   -0.34841E-03  4717   0.289E-02    0.101E+00
RMM:  10    -0.233869154986E+04   -0.95015E-02   -0.21011E-02  5143   0.723E-02    0.681E-01
RMM:  11    -0.233870099616E+04   -0.94463E-02   -0.15697E-02  5157   0.702E-02    0.113E+00
RMM:  12    -0.233870555894E+04   -0.45628E-02   -0.34783E-03  5317   0.354E-02    0.131E+00
RMM:  13    -0.233869967859E+04    0.58803E-02   -0.18510E-03  4748   0.222E-02    0.992E-01
RMM:  14    -0.233869107383E+04    0.86048E-02   -0.10143E-02  5038   0.484E-02    0.631E-01
RMM:  15    -0.233868732963E+04    0.37442E-02   -0.33731E-03  4806   0.338E-02    0.610E-01
RMM:  16    -0.233868350492E+04    0.38247E-02   -0.28592E-03  5493   0.248E-02    0.693E-01
RMM:  17    -0.233867891383E+04    0.45911E-02   -0.19465E-03  4709   0.229E-02    0.866E-01
RMM:  18    -0.233868372829E+04   -0.48145E-02   -0.13597E-03  4739   0.174E-02    0.687E-01
RMM:  19    -0.233869013380E+04   -0.64055E-02   -0.52813E-03  5218   0.340E-02    0.624E-01
RMM:  20    -0.233869996513E+04   -0.98313E-02   -0.89980E-03  5317   0.456E-02    0.104E+00
RMM:  21    -0.233869802332E+04    0.19418E-02   -0.46062E-04  3617   0.174E-02    0.898E-01
RMM:  22    -0.233869880317E+04   -0.77984E-03   -0.13757E-04  3119   0.533E-03    0.969E-01
RMM:  23    -0.233869843121E+04    0.37196E-03   -0.12798E-05  2763   0.386E-03    0.943E-01
RMM:  24    -0.233869827265E+04    0.15855E-03   -0.69166E-06  2546   0.183E-03    0.943E-01
RMM:  25    -0.233869790336E+04    0.36929E-03   -0.11921E-05  2716   0.210E-03    0.928E-01
RMM:  26    -0.233869265771E+04    0.52457E-02   -0.26178E-03  5070   0.236E-02    0.719E-01
RMM:  27    -0.233869005811E+04    0.25996E-02   -0.13274E-03  4567   0.201E-02    0.689E-01
RMM:  28    -0.233868797522E+04    0.20829E-02   -0.10751E-03  5197   0.151E-02    0.690E-01
RMM:  29    -0.233868625904E+04    0.17162E-02   -0.52991E-04  4296   0.121E-02    0.713E-01
RMM:  30    -0.233868331355E+04    0.29455E-02   -0.11320E-03  4922   0.163E-02    0.799E-01
RMM:  31    -0.233868527745E+04   -0.19639E-02   -0.31386E-04  3811   0.945E-03    0.738E-01
RMM:  32    -0.233868720211E+04   -0.19247E-02   -0.54920E-04  4415   0.113E-02    0.698E-01
RMM:  33    -0.233869345878E+04   -0.62567E-02   -0.49133E-03  5291   0.330E-02    0.806E-01
RMM:  34    -0.233869747719E+04   -0.40184E-02   -0.22266E-03  4896   0.241E-02    0.965E-01
RMM:  35    -0.233869434421E+04    0.31330E-02   -0.49673E-04  4022   0.122E-02    0.794E-01
RMM:  36    -0.233869223254E+04    0.21117E-02   -0.55567E-04  4199   0.113E-02    0.735E-01
RMM:  37    -0.233868721693E+04    0.50156E-02   -0.33726E-03  5200   0.273E-02    0.670E-01
RMM:  38    -0.233868389016E+04    0.33268E-02   -0.19941E-03  4817   0.226E-02    0.759E-01
RMM:  39    -0.233868237719E+04    0.15130E-02   -0.58834E-04  4404   0.116E-02    0.817E-01
RMM:  40    -0.233868336053E+04   -0.98334E-03   -0.71047E-05  3001   0.582E-03    0.780E-01
RMM:  41    -0.233868468026E+04   -0.13197E-02   -0.20521E-04  3477   0.709E-03    0.733E-01
RMM:  42    -0.233868715686E+04   -0.24766E-02   -0.84372E-04  4625   0.137E-02    0.678E-01
RMM:  43    -0.233869224190E+04   -0.50850E-02   -0.34975E-03  5170   0.278E-02    0.744E-01
RMM:  44    -0.233869644590E+04   -0.42040E-02   -0.23431E-03  4952   0.240E-02    0.908E-01
RMM:  45    -0.233869800056E+04   -0.15547E-02   -0.54612E-04  4185   0.114E-02    0.968E-01
RMM:  46    -0.233869801883E+04   -0.18269E-04   -0.55759E-05  2973   0.483E-03    0.967E-01
RMM:  47    -0.233869740780E+04    0.61103E-03   -0.21429E-05  2740   0.308E-03    0.941E-01
RMM:  48    -0.233869485433E+04    0.25535E-02   -0.51961E-04  4341   0.105E-02    0.830E-01
RMM:  49    -0.233869040015E+04    0.44542E-02   -0.23338E-03  5032   0.229E-02    0.693E-01
RMM:  50    -0.233868743579E+04    0.29644E-02   -0.17681E-03  4914   0.205E-02    0.695E-01
RMM:  51    -0.233868675787E+04    0.67792E-03   -0.30963E-04  3687   0.875E-03    0.710E-01
RMM:  52    -0.233868682691E+04   -0.69036E-04   -0.22384E-05  2846   0.360E-03    0.710E-01
RMM:  53    -0.233868678223E+04    0.44682E-04   -0.31686E-06  2602   0.192E-03    0.710E-01
RMM:  54    -0.233868640188E+04    0.38035E-03   -0.24113E-05  2845   0.288E-03    0.719E-01
RMM:  55    -0.233868677919E+04   -0.37731E-03   -0.16373E-05  2653   0.282E-03    0.712E-01
RMM:  56    -0.233868760847E+04   -0.82928E-03   -0.10249E-04  3090   0.487E-03    0.699E-01
RMM:  57    -0.233868935722E+04   -0.17487E-02   -0.47134E-04  4381   0.101E-02    0.696E-01
RMM:  58    -0.233868999669E+04   -0.63947E-03   -0.12904E-04  3164   0.644E-03    0.697E-01
RMM:  59    -0.233868997774E+04    0.18947E-04   -0.12395E-05  2717   0.265E-03    0.696E-01
RMM:  60    -0.233868987256E+04    0.10518E-03   -0.17961E-06  2102   0.142E-03    0.694E-01
RMM:  61    -0.233868965818E+04    0.21437E-03   -0.59008E-06  2009   0.148E-03    0.690E-01
RMM:  62    -0.233869190617E+04   -0.22480E-02   -0.57615E-04  4527   0.111E-02    0.743E-01
RMM:  63    -0.233869201996E+04   -0.11379E-03   -0.47125E-05  2895   0.533E-03    0.736E-01
RMM:  64    -0.233869164369E+04    0.37627E-03   -0.10618E-05  2596   0.229E-03    0.727E-01
RMM:  65    -0.233869110680E+04    0.53690E-03   -0.38200E-05  2694   0.309E-03    0.716E-01
RMM:  66    -0.233868946885E+04    0.16380E-02   -0.39636E-04  4214   0.916E-03    0.696E-01
RMM:  67    -0.233868835910E+04    0.11098E-02   -0.27450E-04  3624   0.880E-03    0.705E-01
RMM:  68    -0.233868770120E+04    0.65790E-03   -0.12230E-04  3233   0.565E-03    0.710E-01
RMM:  69    -0.233868765881E+04    0.42381E-04   -0.10618E-05  2740   0.328E-03    0.711E-01
RMM:  70    -0.233868759300E+04    0.65815E-04   -0.39768E-06  2419   0.160E-03    0.711E-01
RMM:  71    -0.233868792716E+04   -0.33416E-03   -0.13343E-05  2363   0.226E-03    0.709E-01
RMM:  72    -0.233868422779E+04    0.36994E-02   -0.16257E-03  4985   0.185E-02    0.787E-01
RMM:  73    -0.233868435416E+04   -0.12637E-03   -0.81464E-05  2968   0.737E-03    0.787E-01
RMM:  74    -0.233868571649E+04   -0.13623E-02   -0.19190E-04  3438   0.694E-03    0.739E-01
RMM:  75    -0.233868830779E+04   -0.25913E-02   -0.10178E-03  4660   0.150E-02    0.697E-01
RMM:  76    -0.233869000407E+04   -0.16963E-02   -0.63146E-04  4261   0.124E-02    0.699E-01
RMM:  77    -0.233869299146E+04   -0.29874E-02   -0.11509E-03  4936   0.158E-02    0.791E-01
RMM:  78    -0.233869326006E+04   -0.26859E-03   -0.10927E-04  3021   0.756E-03    0.789E-01
RMM:  79    -0.233869310805E+04    0.15200E-03   -0.17895E-05  2818   0.274E-03    0.786E-01
RMM:  80    -0.233869380081E+04   -0.69276E-03   -0.50759E-05  2968   0.392E-03    0.812E-01
RMM:  81    -0.233869384980E+04   -0.48992E-04   -0.58839E-06  2623   0.272E-03    0.810E-01
RMM:  82    -0.233868897627E+04    0.48735E-02   -0.26382E-03  4965   0.234E-02    0.680E-01
RMM:  83    -0.233868995863E+04   -0.98237E-03   -0.15110E-04  3179   0.102E-02    0.709E-01
RMM:  84    -0.233869068805E+04   -0.72942E-03   -0.97311E-05  2959   0.526E-03    0.716E-01
RMM:  85    -0.233869118587E+04   -0.49781E-03   -0.46933E-05  2827   0.434E-03    0.724E-01
RMM:  86    -0.233869105665E+04    0.12921E-03   -0.30341E-06  2113   0.243E-03    0.719E-01
RMM:  87    -0.233869752307E+04   -0.64664E-02   -0.36131E-03  5248   0.276E-02    0.972E-01
RMM:  88    -0.233869986225E+04   -0.23392E-02   -0.84435E-04  4375   0.170E-02    0.105E+00
RMM:  89    -0.233869869147E+04    0.11708E-02   -0.73930E-05  2978   0.540E-03    0.992E-01
RMM:  90    -0.233869434187E+04    0.43496E-02   -0.12635E-03  4647   0.162E-02    0.795E-01
RMM:  91    -0.233868917288E+04    0.51690E-02   -0.33726E-03  5147   0.282E-02    0.663E-01
RMM:  92    -0.233868881996E+04    0.35292E-03   -0.28046E-04  3217   0.107E-02    0.664E-01
RMM:  93    -0.233868863127E+04    0.18869E-03   -0.68925E-05  2892   0.385E-03    0.656E-01
RMM:  94    -0.233868869660E+04   -0.65338E-04   -0.28850E-06  2568   0.225E-03    0.657E-01
RMM:  95    -0.233868875942E+04   -0.62811E-04   -0.11150E-06  2143   0.115E-03    0.657E-01
RMM:  96    -0.233868876230E+04   -0.28824E-05   -0.42615E-07  1944   0.917E-04
  12 F= -.23603388E+04 E0= -.23603310E+04  d E =-.595632E-01  mag=     4.0548
       N       E                     dE             d eps       ncg     rms          rms(c)
DAV:   1    -0.233870305065E+04   -0.14291E-01   -0.27105E+00  4576   0.170E+00    0.972E-01
RMM:   2    -0.233873594178E+04   -0.32891E-01   -0.20479E-01  6301   0.312E-01    0.132E+00
RMM:   3    -0.233873042522E+04    0.55166E-02   -0.19404E-02  5599   0.997E-02    0.146E+00
RMM:   4    -0.233872533390E+04    0.50913E-02   -0.21728E-02  5144   0.706E-02    0.113E+00
RMM:   5    -0.233871776463E+04    0.75693E-02   -0.19418E-02  5529   0.706E-02    0.125E+00
RMM:   6    -0.233870479110E+04    0.12974E-01   -0.60389E-03  5603   0.383E-02    0.121E+00
RMM:   7    -0.233871600869E+04   -0.11218E-01   -0.53268E-03  4844   0.362E-02    0.986E-01
RMM:   8    -0.233872434458E+04   -0.83359E-02   -0.10989E-02  5244   0.506E-02    0.101E+00
RMM:   9    -0.233873294371E+04   -0.85991E-02   -0.86953E-03  5118   0.470E-02    0.140E+00
RMM:  10    -0.233870986622E+04    0.23077E-01   -0.36761E-02  5170   0.897E-02    0.951E-01
RMM:  11    -0.233867748459E+04    0.32382E-01   -0.27699E-02  5116   0.873E-02    0.194E+00
RMM:  12    -0.233866159419E+04    0.15890E-01   -0.71181E-03  5182   0.443E-02    0.233E+00
RMM:  13    -0.233870892104E+04   -0.47327E-01   -0.36349E-02  5187   0.876E-02    0.998E-01
RMM:  14    -0.233873337715E+04   -0.24456E-01   -0.43855E-02  5278   0.109E-01    0.135E+00
RMM:  15    -0.233875022764E+04   -0.16850E-01   -0.15795E-02  5394   0.645E-02    0.178E+00
RMM:  16    -0.233875434980E+04   -0.41222E-02   -0.20137E-03  5435   0.218E-02    0.183E+00
RMM:  17    -0.233875858514E+04   -0.42353E-02   -0.78160E-04  4775   0.133E-02    0.187E+00
RMM:  18    -0.233875755104E+04    0.10341E-02   -0.97271E-05  3145   0.733E-03    0.183E+00
RMM:  19    -0.233875745787E+04    0.93172E-04   -0.13891E-05  2925   0.382E-03    0.184E+00
RMM:  20    -0.233875484670E+04    0.26112E-02   -0.96422E-05  3101   0.493E-03    0.180E+00
RMM:  21    -0.233875147252E+04    0.33742E-02   -0.21964E-04  3581   0.698E-03    0.174E+00
RMM:  22    -0.233872993069E+04    0.21542E-01   -0.11525E-02  5326   0.484E-02    0.110E+00
RMM:  23    -0.233871382026E+04    0.16110E-01   -0.18457E-02  5377   0.659E-02    0.795E-01
RMM:  24    -0.233871383083E+04   -0.10572E-04   -0.13299E-03  4262   0.242E-02    0.813E-01
RMM:  25    -0.233871207994E+04    0.17509E-02   -0.68506E-04  4787   0.108E-02    0.822E-01
RMM:  26    -0.233870604473E+04    0.60352E-02   -0.22994E-03  5008   0.227E-02    0.964E-01
RMM:  27    -0.233871421779E+04   -0.81731E-02   -0.40905E-03  5145   0.277E-02    0.824E-01
RMM:  28    -0.233873026230E+04   -0.16045E-01   -0.15440E-02  5392   0.583E-02    0.128E+00
RMM:  29    -0.233872779444E+04    0.24679E-02   -0.12879E-03  4103   0.252E-02    0.118E+00
RMM:  30    -0.233872380711E+04    0.39873E-02   -0.10301E-03  4438   0.154E-02    0.999E-01
RMM:  31    -0.233872644685E+04   -0.26397E-02   -0.15502E-03  4551   0.177E-02    0.103E+00
RMM:  32    -0.233871436125E+04    0.12086E-01   -0.17202E-02  5468   0.592E-02    0.811E-01
RMM:  33    -0.233870665734E+04    0.77039E-02   -0.61676E-03  5108   0.419E-02    0.107E+00
RMM:  34    -0.233870138028E+04    0.52771E-02   -0.27462E-03  5374   0.238E-02    0.127E+00
RMM:  35    -0.233867854250E+04    0.22838E-01   -0.11071E-02  5445   0.503E-02    0.205E+00
RMM:  36    -0.233868344255E+04   -0.49001E-02   -0.46728E-04  3759   0.166E-02    0.190E+00
RMM:  37    -0.233867947125E+04    0.39713E-02   -0.22999E-04  3669   0.680E-03    0.201E+00
RMM:  38    -0.233867958790E+04   -0.11664E-03   -0.14688E-05  2829   0.347E-03    0.201E+00
RMM:  39    -0.233868567827E+04   -0.60904E-02   -0.61466E-04  4302   0.114E-02    0.181E+00
RMM:  40    -0.233870440037E+04   -0.18722E-01   -0.10228E-02  5307   0.480E-02    0.109E+00
RMM:  41    -0.233871206163E+04   -0.76613E-02   -0.53925E-03  5049   0.379E-02    0.800E-01
RMM:  42    -0.233872033660E+04   -0.82750E-02   -0.70731E-03  5627   0.397E-02    0.782E-01
RMM:  43    -0.233872427257E+04   -0.39360E-02   -0.19821E-03  4945   0.236E-02    0.897E-01
RMM:  44    -0.233872731057E+04   -0.30380E-02   -0.89084E-04  4674   0.139E-02    0.102E+00
RMM:  45    -0.233872935353E+04   -0.20430E-02   -0.29026E-04  3890   0.994E-03    0.110E+00
RMM:  46    -0.233872842207E+04    0.93146E-03   -0.33860E-05  2921   0.490E-03    0.105E+00
RMM:  47    -0.233872793656E+04    0.48551E-03   -0.25281E-05  2762   0.291E-03    0.104E+00
RMM:  48    -0.233872398900E+04    0.39476E-02   -0.83573E-04  4608   0.134E-02    0.878E-01
RMM:  49    -0.233872067623E+04    0.33128E-02   -0.10391E-03  4637   0.160E-02    0.800E-01
RMM:  50    -0.233871582750E+04    0.48487E-02   -0.24557E-03  5248   0.233E-02    0.768E-01
RMM:  51    -0.233871299490E+04    0.28326E-02   -0.10498E-03  4614   0.169E-02    0.821E-01
RMM:  52    -0.233871212335E+04    0.87155E-03   -0.20796E-04  3547   0.755E-03    0.841E-01
RMM:  53    -0.233871212708E+04   -0.37279E-05   -0.14181E-05  2854   0.356E-03
  13 F= -.23603627E+04 E0= -.23603582E+04  d E =-.239303E-01  mag=     4.2417
       N       E                     dE             d eps       ncg     rms          rms(c)
DAV:   1    -0.233872601913E+04   -0.13896E-01   -0.41672E+00  4552   0.208E+00    0.107E+00
RMM:   2    -0.233876449173E+04   -0.38473E-01   -0.26175E-01  6300   0.364E-01    0.133E+00
RMM:   3    -0.233876081420E+04    0.36775E-02   -0.25964E-02  5636   0.116E-01    0.153E+00
RMM:   4    -0.233876017303E+04    0.64117E-03   -0.16266E-02  5211   0.614E-02    0.137E+00
RMM:   5    -0.233874986001E+04    0.10313E-01   -0.29124E-02  5833   0.817E-02    0.153E+00
RMM:   6    -0.233872930614E+04    0.20554E-01   -0.91758E-03  5505   0.467E-02    0.158E+00
RMM:   7    -0.233874784002E+04   -0.18534E-01   -0.11548E-02  4973   0.522E-02    0.110E+00
RMM:   8    -0.233875667501E+04   -0.88350E-02   -0.15672E-02  5324   0.619E-02    0.106E+00
RMM:   9    -0.233877018309E+04   -0.13508E-01   -0.19873E-02  5135   0.713E-02    0.173E+00
RMM:  10    -0.233875963092E+04    0.10552E-01   -0.60369E-03  4983   0.464E-02    0.108E+00
RMM:  11    -0.233874528208E+04    0.14349E-01   -0.22125E-02  5091   0.693E-02    0.102E+00
RMM:  12    -0.233871711267E+04    0.28169E-01   -0.28381E-02  5101   0.857E-02    0.189E+00
RMM:  13    -0.233869973294E+04    0.17380E-01   -0.80223E-03  5045   0.492E-02    0.235E+00
RMM:  14    -0.233873153329E+04   -0.31800E-01   -0.12506E-02  5059   0.514E-02    0.144E+00
RMM:  15    -0.233874922494E+04   -0.17692E-01   -0.17565E-02  5280   0.684E-02    0.956E-01
RMM:  16    -0.233875783821E+04   -0.86133E-02   -0.82240E-03  5317   0.456E-02    0.109E+00
RMM:  17    -0.233876080716E+04   -0.29689E-02   -0.14299E-03  5157   0.191E-02    0.117E+00
RMM:  18    -0.233876172996E+04   -0.92279E-03   -0.22885E-04  3417   0.766E-03    0.121E+00
RMM:  19    -0.233875869207E+04    0.30379E-02   -0.30218E-04  3661   0.881E-03    0.106E+00
RMM:  20    -0.233874450617E+04    0.14186E-01   -0.11377E-02  5200   0.486E-02    0.900E-01
RMM:  21    -0.233873897680E+04    0.55294E-02   -0.29092E-03  4820   0.304E-02    0.106E+00
RMM:  22    -0.233873710243E+04    0.18744E-02   -0.69342E-04  4634   0.107E-02    0.112E+00
RMM:  23    -0.233872428840E+04    0.12814E-01   -0.40342E-03  5174   0.296E-02    0.152E+00
RMM:  24    -0.233875033074E+04   -0.26042E-01   -0.21864E-02  5331   0.647E-02    0.881E-01
RMM:  25    -0.233876167401E+04   -0.11343E-01   -0.96474E-03  5126   0.518E-02    0.120E+00
RMM:  26    -0.233878289565E+04   -0.21222E-01   -0.13340E-02  5684   0.521E-02    0.188E+00
RMM:  27    -0.233878035911E+04    0.25365E-02   -0.73533E-04  3659   0.221E-02    0.175E+00
RMM:  28    -0.233878294783E+04   -0.25887E-02   -0.31188E-04  3608   0.746E-03    0.186E+00
RMM:  29    -0.233878150247E+04    0.14454E-02   -0.30282E-05  2878   0.506E-03    0.181E+00
RMM:  30    -0.233878184736E+04   -0.34488E-03   -0.50806E-06  2615   0.207E-03    0.182E+00
RMM:  31    -0.233878051891E+04    0.13284E-02   -0.45716E-05  2849   0.362E-03    0.180E+00
RMM:  32    -0.233878412338E+04   -0.36045E-02   -0.27389E-04  3481   0.757E-03    0.195E+00
RMM:  33    -0.233878128220E+04    0.28412E-02   -0.28944E-04  3961   0.894E-03    0.191E+00
RMM:  34    -0.233877492507E+04    0.63571E-02   -0.10791E-03  4898   0.156E-02    0.178E+00
RMM:  35    -0.233877092037E+04    0.40047E-02   -0.65049E-04  4317   0.136E-02    0.170E+00
RMM:  36    -0.233876904167E+04    0.18787E-02   -0.26011E-04  3700   0.809E-03    0.165E+00
RMM:  37    -0.233876737819E+04    0.16635E-02   -0.12494E-04  3312   0.668E-03    0.160E+00
RMM:  38    -0.233876337952E+04    0.39987E-02   -0.58839E-04  4582   0.118E-02    0.147E+00
RMM:  39    -0.233875795285E+04    0.54267E-02   -0.13373E-03  4752   0.177E-02    0.126E+00
RMM:  40    -0.233875372049E+04    0.42324E-02   -0.12403E-03  4628   0.171E-02    0.113E+00
RMM:  41    -0.233874867801E+04    0.50425E-02   -0.18302E-03  4972   0.203E-02    0.104E+00
RMM:  42    -0.233874223353E+04    0.64445E-02   -0.27860E-03  5142   0.256E-02    0.112E+00
RMM:  43    -0.233873761929E+04    0.46142E-02   -0.14914E-03  4779   0.193E-02    0.126E+00
RMM:  44    -0.233873835172E+04   -0.73244E-03   -0.66819E-05  3037   0.588E-03    0.124E+00
RMM:  45    -0.233873836399E+04   -0.12265E-04   -0.79267E-06  2798   0.245E-03    0.124E+00
RMM:  46    -0.233873848697E+04   -0.12299E-03   -0.14801E-06  2627   0.159E-03    0.123E+00
RMM:  47    -0.233873779743E+04    0.68954E-03   -0.15363E-05  2695   0.216E-03    0.125E+00
RMM:  48    -0.233873735619E+04    0.44124E-03   -0.10231E-05  2676   0.195E-03    0.127E+00
RMM:  49    -0.233873722397E+04    0.13222E-03   -0.24275E-06  2294   0.138E-03    0.127E+00
RMM:  50    -0.233873722528E+04   -0.13108E-05   -0.40041E-07  1816   0.839E-04
  14 F= -.23603884E+04 E0= -.23603861E+04  d E =-.257221E-01  mag=     4.4952
       N       E                     dE             d eps       ncg     rms          rms(c)
DAV:   1    -0.233874435332E+04   -0.71294E-02   -0.44472E-01  4560   0.691E-01    0.126E+00
RMM:   2    -0.233876820297E+04   -0.23850E-01   -0.10455E-01  5995   0.171E-01    0.133E+00
RMM:   3    -0.233876858412E+04   -0.38115E-03   -0.31197E-02  5453   0.869E-02    0.168E+00
RMM:   4    -0.233876708966E+04    0.14945E-02   -0.38473E-03  4992   0.215E-02    0.166E+00
RMM:   5    -0.233876485291E+04    0.22368E-02   -0.41775E-02  5309   0.944E-02    0.169E+00
RMM:   6    -0.233869227014E+04    0.72583E-01   -0.66011E-02  5072   0.125E-01    0.294E+00
RMM:   7    -0.233876575308E+04   -0.73483E-01   -0.95195E-02  5062   0.146E-01    0.119E+00
RMM:   8    -0.233876440491E+04    0.13482E-02   -0.19905E-02  5452   0.801E-02    0.102E+00
RMM:   9    -0.233876351906E+04    0.88584E-03   -0.61360E-03  5596   0.373E-02    0.102E+00
RMM:  10    -0.233876858460E+04   -0.50655E-02   -0.43619E-03  4936   0.323E-02    0.139E+00
RMM:  11    -0.233875472722E+04    0.13857E-01   -0.35666E-02  5062   0.878E-02    0.886E-01
RMM:  12    -0.233874089393E+04    0.13833E-01   -0.13119E-02  5012   0.647E-02    0.144E+00
RMM:  13    -0.233873857709E+04    0.23168E-02   -0.19350E-03  5289   0.197E-02    0.152E+00
RMM:  14    -0.233873984922E+04   -0.12721E-02   -0.64143E-05  3333   0.556E-03    0.149E+00
RMM:  15    -0.233875570443E+04   -0.15855E-01   -0.82803E-03  5142   0.414E-02    0.992E-01
RMM:  16    -0.233877144593E+04   -0.15742E-01   -0.18124E-02  5397   0.669E-02    0.126E+00
RMM:  17    -0.233877981047E+04   -0.83645E-02   -0.57932E-03  5211   0.388E-02    0.155E+00
RMM:  18    -0.233877353365E+04    0.62768E-02   -0.87197E-04  4497   0.161E-02    0.124E+00
RMM:  19    -0.233875796148E+04    0.15572E-01   -0.17261E-02  5325   0.598E-02    0.945E-01
RMM:  20    -0.233873887164E+04    0.19090E-01   -0.17736E-02  5279   0.662E-02    0.160E+00
RMM:  21    -0.233870235733E+04    0.36514E-01   -0.20721E-02  5589   0.693E-02    0.260E+00
RMM:  22    -0.233870867771E+04   -0.63204E-02   -0.68912E-04  4157   0.201E-02    0.244E+00
RMM:  23    -0.233870977724E+04   -0.10995E-02   -0.10740E-04  3169   0.541E-03    0.240E+00
RMM:  24    -0.233872017366E+04   -0.10396E-01   -0.14745E-03  4762   0.182E-02    0.209E+00
RMM:  25    -0.233873988458E+04   -0.19711E-01   -0.76182E-03  5323   0.428E-02    0.143E+00
RMM:  26    -0.233875429830E+04   -0.14414E-01   -0.98858E-03  5437   0.487E-02    0.891E-01
RMM:  27    -0.233876045850E+04   -0.61602E-02   -0.39812E-03  5108   0.310E-02    0.785E-01
RMM:  28    -0.233876623963E+04   -0.57811E-02   -0.32581E-03  5186   0.275E-02    0.860E-01
RMM:  29    -0.233876803927E+04   -0.17996E-02   -0.68707E-04  4424   0.146E-02    0.896E-01
RMM:  30    -0.233876844427E+04   -0.40500E-03   -0.12559E-04  3170   0.541E-03    0.908E-01
RMM:  31    -0.233876788070E+04    0.56358E-03   -0.16939E-05  2903   0.359E-03    0.888E-01
RMM:  32    -0.233876492023E+04    0.29605E-02   -0.57390E-04  4317   0.109E-02    0.805E-01
RMM:  33    -0.233875999959E+04    0.49206E-02   -0.20258E-03  4967   0.212E-02    0.778E-01
RMM:  34    -0.233875891160E+04    0.10880E-02   -0.31237E-04  3549   0.988E-03    0.792E-01
RMM:  35    -0.233875769652E+04    0.12151E-02   -0.17947E-04  3433   0.623E-03    0.803E-01
RMM:  36    -0.233875499102E+04    0.27055E-02   -0.45771E-04  4197   0.104E-02    0.855E-01
RMM:  37    -0.233875592069E+04   -0.92967E-03   -0.38847E-05  2851   0.475E-03    0.834E-01
RMM:  38    -0.233875575934E+04    0.16135E-03   -0.45586E-06  2562   0.188E-03    0.831E-01
RMM:  39    -0.233875789870E+04   -0.21394E-02   -0.30942E-04  3924   0.828E-03    0.777E-01
RMM:  40    -0.233876256119E+04   -0.46625E-02   -0.16609E-03  4823   0.190E-02    0.756E-01
RMM:  41    -0.233876289666E+04   -0.33548E-03   -0.14073E-04  3058   0.794E-03    0.750E-01
RMM:  42    -0.233876522957E+04   -0.23329E-02   -0.42848E-04  4253   0.932E-03    0.803E-01
RMM:  43    -0.233876365997E+04    0.15696E-02   -0.12347E-04  3167   0.628E-03    0.758E-01
RMM:  44    -0.233876250503E+04    0.11549E-02   -0.13025E-04  3185   0.571E-03    0.754E-01
RMM:  45    -0.233876114774E+04    0.13573E-02   -0.15930E-04  3294   0.645E-03    0.744E-01
RMM:  46    -0.233875629717E+04    0.48506E-02   -0.16597E-03  4990   0.186E-02    0.798E-01
RMM:  47    -0.233875866313E+04   -0.23660E-02   -0.26130E-04  3652   0.946E-03    0.763E-01
RMM:  48    -0.233876412464E+04   -0.54615E-02   -0.21466E-03  4973   0.211E-02    0.784E-01
RMM:  49    -0.233876860539E+04   -0.44807E-02   -0.16241E-03  4571   0.210E-02    0.904E-01
RMM:  50    -0.233876840584E+04    0.19954E-03   -0.12307E-04  3051   0.699E-03    0.880E-01
RMM:  51    -0.233877073017E+04   -0.23243E-02   -0.31023E-04  4004   0.837E-03    0.981E-01
RMM:  52    -0.233876884301E+04    0.18872E-02   -0.14684E-04  3191   0.700E-03    0.895E-01
RMM:  53    -0.233876990445E+04   -0.10614E-02   -0.35532E-05  2797   0.415E-03    0.952E-01
RMM:  54    -0.233876896124E+04    0.94321E-03   -0.35185E-05  2705   0.328E-03    0.910E-01
RMM:  55    -0.233876881586E+04    0.14537E-03   -0.91390E-06  2536   0.222E-03    0.915E-01
RMM:  56    -0.233876846138E+04    0.35449E-03   -0.12780E-05  2638   0.222E-03    0.904E-01
RMM:  57    -0.233876270603E+04    0.57554E-02   -0.21660E-03  4981   0.208E-02    0.763E-01
RMM:  58    -0.233876125858E+04    0.14474E-02   -0.44165E-04  3881   0.131E-02    0.783E-01
RMM:  59    -0.233876141014E+04   -0.15156E-03   -0.50173E-05  2913   0.371E-03    0.782E-01
RMM:  60    -0.233876085003E+04    0.56010E-03   -0.22946E-05  2778   0.311E-03    0.775E-01
RMM:  61    -0.233875943994E+04    0.14101E-02   -0.12558E-04  3237   0.553E-03    0.768E-01
RMM:  62    -0.233875799583E+04    0.14441E-02   -0.14165E-04  3125   0.603E-03    0.761E-01
RMM:  63    -0.233875679354E+04    0.12023E-02   -0.11214E-04  3147   0.561E-03    0.776E-01
RMM:  64    -0.233875694049E+04   -0.14695E-03   -0.62855E-06  2684   0.287E-03    0.776E-01
RMM:  65    -0.233875684776E+04    0.92733E-04   -0.34839E-06  2265   0.129E-03    0.780E-01
RMM:  66    -0.233875693012E+04   -0.82361E-04   -0.87167E-07  2097   0.130E-03    0.776E-01
RMM:  67    -0.233875895546E+04   -0.20253E-02   -0.24760E-04  3528   0.711E-03    0.749E-01
RMM:  68    -0.233876023946E+04   -0.12840E-02   -0.21416E-04  3592   0.740E-03    0.722E-01
RMM:  69    -0.233876087816E+04   -0.63870E-03   -0.90028E-05  3030   0.506E-03    0.710E-01
RMM:  70    -0.233876153212E+04   -0.65396E-03   -0.49695E-05  2947   0.422E-03    0.708E-01
RMM:  71    -0.233876108077E+04    0.45135E-03   -0.13061E-05  2585   0.313E-03    0.709E-01
RMM:  72    -0.233876050949E+04    0.57128E-03   -0.24409E-05  2738   0.263E-03    0.694E-01
RMM:  73    -0.233875927759E+04    0.12319E-02   -0.11990E-04  3122   0.513E-03    0.707E-01
RMM:  74    -0.233875927748E+04    0.10952E-06   -0.71208E-06  2554   0.252E-03
  15 F= -.23604107E+04 E0= -.23604047E+04  d E =-.222735E-01  mag=     4.0718
       N       E                     dE             d eps       ncg     rms          rms(c)
DAV:   1    -0.233873957894E+04    0.19699E-01   -0.16324E+01  4552   0.413E+00    0.133E+00
RMM:   2    -0.233885611150E+04   -0.11653E+00   -0.96341E-01  6295   0.703E-01    0.179E+00
RMM:   3    -0.233885129896E+04    0.48125E-02   -0.85522E-02  5646   0.226E-01    0.216E+00
RMM:   4    -0.233885116719E+04    0.13177E-03   -0.22080E-02  5740   0.713E-02    0.201E+00
RMM:   5    -0.233882540548E+04    0.25762E-01   -0.29202E-02  5419   0.853E-02    0.132E+00
RMM:   6    -0.233881475352E+04    0.10652E-01   -0.77007E-03  5702   0.483E-02    0.123E+00
RMM:   7    -0.233879690403E+04    0.17849E-01   -0.12071E-02  5074   0.543E-02    0.163E+00
RMM:   8    -0.233880207328E+04   -0.51692E-02   -0.57464E-04  4174   0.232E-02    0.151E+00
RMM:   9    -0.233882347075E+04   -0.21397E-01   -0.16169E-02  5036   0.631E-02    0.122E+00
RMM:  10    -0.233883095848E+04   -0.74877E-02   -0.18279E-02  5554   0.715E-02    0.106E+00
RMM:  11    -0.233886037713E+04   -0.29419E-01   -0.32122E-02  5281   0.905E-02    0.200E+00
RMM:  12    -0.233885556005E+04    0.48171E-02   -0.16600E-03  4382   0.398E-02    0.182E+00
RMM:  13    -0.233885309502E+04    0.24650E-02   -0.46996E-04  4139   0.112E-02    0.183E+00
RMM:  14    -0.233884380239E+04    0.92926E-02   -0.37525E-03  4851   0.303E-02    0.160E+00
RMM:  15    -0.233882643167E+04    0.17371E-01   -0.17657E-02  5256   0.650E-02    0.114E+00
RMM:  16    -0.233881570855E+04    0.10723E-01   -0.96428E-03  5129   0.532E-02    0.121E+00
RMM:  17    -0.233880647793E+04    0.92306E-02   -0.57333E-03  5480   0.355E-02    0.142E+00
RMM:  18    -0.233880098049E+04    0.54974E-02   -0.14710E-03  4748   0.205E-02    0.159E+00
RMM:  19    -0.233881311615E+04   -0.12136E-01   -0.37657E-03  5045   0.291E-02    0.126E+00
RMM:  20    -0.233883282138E+04   -0.19705E-01   -0.17937E-02  5450   0.645E-02    0.142E+00
RMM:  21    -0.233883817225E+04   -0.53509E-02   -0.31916E-03  5078   0.325E-02    0.154E+00
RMM:  22    -0.233883712153E+04    0.10507E-02   -0.31218E-04  3475   0.781E-03    0.149E+00
RMM:  23    -0.233883707449E+04    0.47042E-04   -0.85923E-05  3039   0.643E-03    0.152E+00
RMM:  24    -0.233882668567E+04    0.10389E-01   -0.42120E-03  5156   0.298E-02    0.117E+00
RMM:  25    -0.233881057749E+04    0.16108E-01   -0.13282E-02  5371   0.549E-02    0.130E+00
RMM:  26    -0.233880398372E+04    0.65938E-02   -0.30927E-03  5069   0.297E-02    0.150E+00
RMM:  27    -0.233878009170E+04    0.23892E-01   -0.10772E-02  5508   0.483E-02    0.222E+00
RMM:  28    -0.233878679700E+04   -0.67053E-02   -0.50303E-04  3873   0.170E-02    0.203E+00
RMM:  29    -0.233878737675E+04   -0.57975E-03   -0.69559E-05  3015   0.498E-03    0.200E+00
RMM:  30    -0.233879825619E+04   -0.10879E-01   -0.23423E-03  5001   0.227E-02    0.163E+00
RMM:  31    -0.233881245561E+04   -0.14199E-01   -0.74557E-03  5326   0.424E-02    0.115E+00
RMM:  32    -0.233882551035E+04   -0.13055E-01   -0.10801E-02  5450   0.496E-02    0.107E+00
RMM:  33    -0.233883235639E+04   -0.68460E-02   -0.36999E-03  5101   0.309E-02    0.124E+00
RMM:  34    -0.233883862074E+04   -0.62643E-02   -0.21212E-03  5195   0.214E-02    0.144E+00
RMM:  35    -0.233884322319E+04   -0.46025E-02   -0.82229E-04  4606   0.151E-02    0.158E+00
RMM:  36    -0.233884648423E+04   -0.32610E-02   -0.40804E-04  4127   0.104E-02    0.167E+00
RMM:  37    -0.233884777198E+04   -0.12877E-02   -0.86103E-05  3103   0.616E-03    0.170E+00
RMM:  38    -0.233884780886E+04   -0.36886E-04   -0.95097E-06  2922   0.325E-03    0.170E+00
RMM:  39    -0.233884785843E+04   -0.49564E-04   -0.20078E-06  2704   0.192E-03    0.170E+00
RMM:  40    -0.233884586194E+04    0.19965E-02   -0.73492E-05  2870   0.417E-03    0.164E+00
RMM:  41    -0.233883628039E+04    0.95815E-02   -0.24022E-03  4955   0.219E-02    0.131E+00
RMM:  42    -0.233882985193E+04    0.64285E-02   -0.20249E-03  4683   0.234E-02    0.114E+00
RMM:  43    -0.233882714599E+04    0.27059E-02   -0.76147E-04  4602   0.134E-02    0.109E+00
RMM:  44    -0.233882400132E+04    0.31447E-02   -0.58713E-04  4343   0.119E-02    0.102E+00
RMM:  45    -0.233881804963E+04    0.59517E-02   -0.18931E-03  5087   0.208E-02    0.999E-01
RMM:  46    -0.233881680083E+04    0.12488E-02   -0.28697E-04  3512   0.101E-02    0.102E+00
RMM:  47    -0.233881519358E+04    0.16073E-02   -0.21543E-04  3575   0.691E-03    0.104E+00
RMM:  48    -0.233881277738E+04    0.24162E-02   -0.25974E-04  3770   0.854E-03    0.109E+00
RMM:  49    -0.233881428180E+04   -0.15044E-02   -0.67964E-05  2926   0.515E-03    0.106E+00
RMM:  50    -0.233881683634E+04   -0.25545E-02   -0.31167E-04  3857   0.818E-03    0.101E+00
RMM:  51    -0.233882201198E+04   -0.51756E-02   -0.13740E-03  4739   0.173E-02    0.100E+00
RMM:  52    -0.233883321673E+04   -0.11205E-01   -0.54312E-03  5196   0.343E-02    0.130E+00
RMM:  53    -0.233883905875E+04   -0.58420E-02   -0.18389E-03  4818   0.225E-02    0.148E+00
RMM:  54    -0.233883941044E+04   -0.35170E-03   -0.22571E-04  3261   0.738E-03    0.147E+00
RMM:  55    -0.233884029081E+04   -0.88036E-03   -0.47183E-05  2966   0.461E-03    0.151E+00
RMM:  56    -0.233883853050E+04    0.17603E-02   -0.59530E-05  2849   0.456E-03    0.144E+00
RMM:  57    -0.233883325114E+04    0.52794E-02   -0.80214E-04  4387   0.127E-02    0.124E+00
RMM:  58    -0.233883262250E+04    0.62864E-03   -0.88375E-05  2922   0.732E-03    0.124E+00
RMM:  59    -0.233883256143E+04    0.61071E-04   -0.19813E-05  2704   0.222E-03    0.123E+00
RMM:  60    -0.233883133946E+04    0.12220E-02   -0.51136E-05  2931   0.368E-03    0.118E+00
RMM:  61    -0.233883005614E+04    0.12833E-02   -0.68882E-05  2995   0.412E-03    0.114E+00
RMM:  62    -0.233882976338E+04    0.29276E-03   -0.16476E-05  2610   0.290E-03    0.112E+00
RMM:  63    -0.233882446533E+04    0.52981E-02   -0.11516E-03  4760   0.151E-02    0.975E-01
RMM:  64    -0.233882502342E+04   -0.55809E-03   -0.88603E-05  2998   0.747E-03    0.985E-01
RMM:  65    -0.233882176751E+04    0.32559E-02   -0.46382E-04  3937   0.975E-03    0.926E-01
RMM:  66    -0.233881762058E+04    0.41469E-02   -0.85484E-04  4591   0.136E-02    0.928E-01
RMM:  67    -0.233881451794E+04    0.31026E-02   -0.57574E-04  4058   0.118E-02    0.963E-01
RMM:  68    -0.233881401176E+04    0.50619E-03   -0.66369E-05  3021   0.490E-03    0.974E-01
RMM:  69    -0.233881380785E+04    0.20391E-03   -0.12475E-05  2786   0.279E-03    0.977E-01
RMM:  70    -0.233881344029E+04    0.36756E-03   -0.84484E-06  2747   0.232E-03    0.985E-01
RMM:  71    -0.233881548829E+04   -0.20480E-02   -0.14880E-04  3050   0.566E-03    0.952E-01
RMM:  72    -0.233881275072E+04    0.27376E-02   -0.30207E-04  3508   0.825E-03    0.101E+00
RMM:  73    -0.233881188023E+04    0.87049E-03   -0.56688E-05  2902   0.501E-03    0.103E+00
RMM:  74    -0.233881280977E+04   -0.92954E-03   -0.19710E-05  2648   0.315E-03    0.101E+00
RMM:  75    -0.233881455646E+04   -0.17467E-02   -0.12631E-04  3190   0.536E-03    0.978E-01
RMM:  76    -0.233881902746E+04   -0.44710E-02   -0.90732E-04  4473   0.136E-02    0.936E-01
RMM:  77    -0.233882497202E+04   -0.59446E-02   -0.19276E-03  4794   0.211E-02    0.981E-01
RMM:  78    -0.233882487345E+04    0.98568E-04   -0.11822E-04  3020   0.792E-03    0.961E-01
RMM:  79    -0.233882523425E+04   -0.36080E-03   -0.39950E-05  2857   0.326E-03    0.975E-01
RMM:  80    -0.233882970401E+04   -0.44698E-02   -0.77503E-04  4623   0.127E-02    0.111E+00
RMM:  81    -0.233883000466E+04   -0.30065E-03   -0.69957E-05  2930   0.656E-03    0.110E+00
RMM:  82    -0.233883278582E+04   -0.27812E-02   -0.35712E-04  4154   0.853E-03    0.119E+00
RMM:  83    -0.233883288132E+04   -0.95505E-04   -0.23755E-05  2856   0.447E-03    0.118E+00
RMM:  84    -0.233883284855E+04    0.32779E-04   -0.60456E-06  2671   0.164E-03    0.118E+00
RMM:  85    -0.233883287423E+04   -0.25682E-04   -0.77403E-07  2466   0.130E-03    0.118E+00
RMM:  86    -0.233883393744E+04   -0.10632E-02   -0.33995E-05  2864   0.280E-03    0.122E+00
RMM:  87    -0.233883096845E+04    0.29690E-02   -0.25096E-04  3393   0.769E-03    0.111E+00
RMM:  88    -0.233883239546E+04   -0.14270E-02   -0.47672E-05  2804   0.461E-03    0.118E+00
RMM:  89    -0.233883347060E+04   -0.10751E-02   -0.47334E-05  2760   0.346E-03    0.121E+00
RMM:  90    -0.233883388079E+04   -0.41018E-03   -0.11709E-05  2387   0.223E-03    0.122E+00
RMM:  91    -0.233883388305E+04   -0.22664E-05   -0.19200E-06  2007   0.138E-03
  16 F= -.23604866E+04 E0= -.23604737E+04  d E =-.759180E-01  mag=     4.0804
       N       E                     dE             d eps       ncg     rms          rms(c)
DAV:   1    -0.233883109465E+04    0.27861E-02   -0.20620E+00  4556   0.147E+00    0.118E+00
RMM:   2    -0.233887454770E+04   -0.43453E-01   -0.16523E-01  6195   0.270E-01    0.195E+00
RMM:   3    -0.233887491684E+04   -0.36914E-03   -0.11309E-02  5536   0.843E-02    0.186E+00
RMM:   4    -0.233885230585E+04    0.22611E-01   -0.44662E-02  5500   0.941E-02    0.174E+00
RMM:   5    -0.233884711939E+04    0.51865E-02   -0.64932E-03  5395   0.399E-02    0.160E+00
RMM:   6    -0.233884820526E+04   -0.10859E-02   -0.81646E-03  6101   0.434E-02    0.187E+00
RMM:   7    -0.233883674052E+04    0.11465E-01   -0.59150E-03  5313   0.376E-02    0.156E+00
RMM:   8    -0.233883373258E+04    0.30079E-02   -0.18900E-03  4700   0.228E-02    0.160E+00
RMM:   9    -0.233882928424E+04    0.44483E-02   -0.15797E-03  4887   0.195E-02    0.164E+00
RMM:  10    -0.233882274236E+04    0.65419E-02   -0.13374E-03  4568   0.191E-02    0.174E+00
RMM:  11    -0.233883231655E+04   -0.95742E-02   -0.23714E-03  4617   0.236E-02    0.158E+00
RMM:  12    -0.233885120538E+04   -0.18889E-01   -0.15469E-02  5161   0.603E-02    0.171E+00
RMM:  13    -0.233884863431E+04    0.25711E-02   -0.78841E-04  3878   0.226E-02    0.155E+00
RMM:  14    -0.233885190081E+04   -0.32665E-02   -0.88082E-04  4672   0.144E-02    0.169E+00
RMM:  15    -0.233884716192E+04    0.47389E-02   -0.11530E-03  4961   0.181E-02    0.158E+00
RMM:  16    -0.233883975904E+04    0.74029E-02   -0.30711E-03  5203   0.270E-02    0.147E+00
RMM:  17    -0.233883229410E+04    0.74649E-02   -0.31668E-03  5103   0.280E-02    0.150E+00
RMM:  18    -0.233882962293E+04    0.26712E-02   -0.71760E-04  4455   0.140E-02    0.154E+00
RMM:  19    -0.233883890177E+04   -0.92788E-02   -0.27183E-03  4861   0.243E-02    0.151E+00
RMM:  20    -0.233885424550E+04   -0.15344E-01   -0.84466E-03  5268   0.433E-02    0.188E+00
RMM:  21    -0.233885567334E+04   -0.14278E-02   -0.87038E-04  4014   0.189E-02    0.187E+00
RMM:  22    -0.233885615728E+04   -0.48394E-03   -0.18941E-04  3243   0.544E-03    0.190E+00
RMM:  23    -0.233885734949E+04   -0.11922E-02   -0.45322E-05  2958   0.445E-03    0.197E+00
RMM:  24    -0.233885706119E+04    0.28830E-03   -0.70737E-06  2739   0.271E-03    0.196E+00
RMM:  25    -0.233885780489E+04   -0.74369E-03   -0.96963E-05  3034   0.470E-03    0.204E+00
RMM:  26    -0.233885732971E+04    0.47518E-03   -0.84414E-05  2848   0.495E-03    0.196E+00
RMM:  27    -0.233884868751E+04    0.86422E-02   -0.18546E-03  4644   0.191E-02    0.157E+00
RMM:  28    -0.233882646067E+04    0.22227E-01   -0.16991E-02  5328   0.603E-02    0.135E+00
RMM:  29    -0.233882681788E+04   -0.35721E-03   -0.75961E-04  3735   0.208E-02    0.136E+00
RMM:  30    -0.233882693159E+04   -0.11370E-03   -0.17909E-04  3161   0.495E-03    0.135E+00
RMM:  31    -0.233882608877E+04    0.84282E-03   -0.32110E-05  2865   0.387E-03    0.136E+00
RMM:  32    -0.233881742782E+04    0.86609E-02   -0.24212E-03  5151   0.229E-02    0.165E+00
RMM:  33    -0.233881315809E+04    0.42697E-02   -0.67016E-04  4362   0.148E-02    0.178E+00
RMM:  34    -0.233881763549E+04   -0.44774E-02   -0.26058E-04  3497   0.828E-03    0.165E+00
RMM:  35    -0.233883216580E+04   -0.14530E-01   -0.58504E-03  5109   0.350E-02    0.132E+00
RMM:  36    -0.233886198228E+04   -0.29816E-01   -0.26858E-02  5463   0.771E-02    0.203E+00
RMM:  37    -0.233888458126E+04   -0.22599E-01   -0.13491E-02  5459   0.582E-02    0.240E+00
RMM:  38    -0.233888561827E+04   -0.10370E-02   -0.16757E-03  4618   0.189E-02    0.236E+00
RMM:  39    -0.233888470737E+04    0.91090E-03   -0.12223E-04  3093   0.540E-03    0.236E+00
RMM:  40    -0.233888440252E+04    0.30485E-03   -0.64987E-06  2901   0.297E-03    0.236E+00
RMM:  41    -0.233888443951E+04   -0.36989E-04   -0.16098E-06  2656   0.158E-03    0.236E+00
RMM:  42    -0.233888356048E+04    0.87902E-03   -0.13708E-05  2644   0.214E-03    0.235E+00
RMM:  43    -0.233888023509E+04    0.33254E-02   -0.20580E-04  3633   0.660E-03    0.232E+00
RMM:  44    -0.233887769345E+04    0.25416E-02   -0.31233E-04  3896   0.860E-03    0.233E+00
RMM:  45    -0.233887966498E+04   -0.19715E-02   -0.44446E-05  2837   0.457E-03    0.236E+00
RMM:  46    -0.233887688030E+04    0.27847E-02   -0.85408E-05  2910   0.472E-03    0.231E+00
RMM:  47    -0.233886273936E+04    0.14141E-01   -0.30926E-03  5081   0.250E-02    0.195E+00
RMM:  48    -0.233884595007E+04    0.16789E-01   -0.75161E-03  5278   0.413E-02    0.143E+00
RMM:  49    -0.233882804809E+04    0.17902E-01   -0.13799E-02  5521   0.555E-02    0.139E+00
RMM:  50    -0.233881768724E+04    0.10361E-01   -0.50554E-03  5176   0.362E-02    0.168E+00
RMM:  51    -0.233881682702E+04    0.86022E-03   -0.52301E-04  4102   0.111E-02    0.171E+00
RMM:  52    -0.233881246851E+04    0.43585E-02   -0.43095E-04  4207   0.106E-02    0.182E+00
RMM:  53    -0.233881247647E+04   -0.79578E-05   -0.47627E-05  2955   0.523E-03
  17 F= -.23604656E+04 E0= -.23604646E+04  d E =0.209693E-01  mag=     4.6540
       N       E                     dE             d eps       ncg     rms          rms(c)
DAV:   1    -0.233881984758E+04   -0.73791E-02   -0.68775E+00  4552   0.268E+00    0.175E+00
RMM:   2    -0.233889628712E+04   -0.76440E-01   -0.50623E-01  6241   0.481E-01    0.194E+00
RMM:   3    -0.233889150234E+04    0.47848E-02   -0.63411E-02  5530   0.163E-01    0.261E+00
RMM:   4    -0.233889892204E+04   -0.74197E-02   -0.25137E-02  5160   0.758E-02    0.226E+00
RMM:   5    -0.233887139929E+04    0.27523E-01   -0.96332E-02  5888   0.141E-01    0.269E+00
RMM:   6    -0.233880812148E+04    0.63278E-01   -0.27221E-02  5445   0.802E-02    0.301E+00
RMM:   7    -0.233884444623E+04   -0.36325E-01   -0.12521E-02  4933   0.560E-02    0.217E+00
RMM:   8    -0.233886474275E+04   -0.20297E-01   -0.24234E-02  5391   0.757E-02    0.137E+00
RMM:   9    -0.233887658188E+04   -0.11839E-01   -0.25386E-02  5170   0.836E-02    0.132E+00
RMM:  10    -0.233889707907E+04   -0.20497E-01   -0.36975E-02  5165   0.100E-01    0.223E+00
RMM:  11    -0.233888095694E+04    0.16122E-01   -0.96896E-03  4960   0.583E-02    0.136E+00
RMM:  12    -0.233886626131E+04    0.14696E-01   -0.28863E-02  5079   0.783E-02    0.116E+00
RMM:  13    -0.233882024520E+04    0.46016E-01   -0.54810E-02  5255   0.116E-01    0.250E+00
RMM:  14    -0.233880836200E+04    0.11883E-01   -0.63476E-03  5042   0.496E-02    0.276E+00
RMM:  15    -0.233881488697E+04   -0.65250E-02   -0.50002E-04  4226   0.108E-02    0.264E+00
RMM:  16    -0.233886500570E+04   -0.50119E-01   -0.33919E-02  5285   0.849E-02    0.139E+00
RMM:  17    -0.233887861634E+04   -0.13611E-01   -0.12343E-02  4960   0.625E-02    0.138E+00
RMM:  18    -0.233888434162E+04   -0.57253E-02   -0.41194E-03  5553   0.289E-02    0.148E+00
RMM:  19    -0.233889075899E+04   -0.64174E-02   -0.15123E-03  4898   0.189E-02    0.169E+00
RMM:  20    -0.233888282202E+04    0.79370E-02   -0.13899E-03  4872   0.183E-02    0.139E+00
RMM:  21    -0.233886911176E+04    0.13710E-01   -0.73526E-03  5219   0.388E-02    0.127E+00
RMM:  22    -0.233885200406E+04    0.17108E-01   -0.92896E-03  5218   0.466E-02    0.165E+00
RMM:  23    -0.233885093569E+04    0.10684E-02   -0.76512E-04  4197   0.160E-02    0.169E+00
RMM:  24    -0.233885034224E+04    0.59345E-03   -0.10100E-04  3212   0.468E-03    0.170E+00
RMM:  25    -0.233885449208E+04   -0.41498E-02   -0.27762E-04  3616   0.837E-03    0.159E+00
RMM:  26    -0.233887622363E+04   -0.21732E-01   -0.12910E-02  5209   0.515E-02    0.139E+00
RMM:  27    -0.233888649038E+04   -0.10267E-01   -0.49926E-03  4833   0.375E-02    0.166E+00
RMM:  28    -0.233890525637E+04   -0.18766E-01   -0.78774E-03  5604   0.399E-02    0.228E+00
RMM:  29    -0.233889862384E+04    0.66325E-02   -0.66363E-04  3701   0.191E-02    0.197E+00
RMM:  30    -0.233889518383E+04    0.34400E-02   -0.33737E-04  3654   0.906E-03    0.191E+00
RMM:  31    -0.233889292598E+04    0.22578E-02   -0.16788E-04  3227   0.708E-03    0.184E+00
RMM:  32    -0.233889110485E+04    0.18211E-02   -0.14600E-04  3388   0.637E-03    0.179E+00
RMM:  33    -0.233888117619E+04    0.99287E-02   -0.25787E-03  5145   0.229E-02    0.145E+00
RMM:  34    -0.233887173616E+04    0.94400E-02   -0.34686E-03  5056   0.286E-02    0.134E+00
RMM:  35    -0.233886676882E+04    0.49673E-02   -0.15209E-03  4750   0.188E-02    0.138E+00
RMM:  36    -0.233886195780E+04    0.48110E-02   -0.95753E-04  4646   0.149E-02    0.146E+00
RMM:  37    -0.233885841759E+04    0.35402E-02   -0.48221E-04  4158   0.117E-02    0.154E+00
RMM:  38    -0.233886343562E+04   -0.50180E-02   -0.53136E-04  4136   0.111E-02    0.143E+00
RMM:  39    -0.233887027424E+04   -0.68386E-02   -0.16539E-03  4868   0.194E-02    0.134E+00
RMM:  40    -0.233887994212E+04   -0.96679E-02   -0.38194E-03  5106   0.291E-02    0.144E+00
RMM:  41    -0.233888526514E+04   -0.53230E-02   -0.15825E-03  4785   0.203E-02    0.156E+00
RMM:  42    -0.233888902389E+04   -0.37588E-02   -0.71980E-04  4541   0.125E-02    0.167E+00
RMM:  43    -0.233888856060E+04    0.46329E-03   -0.38281E-05  2939   0.568E-03    0.164E+00
RMM:  44    -0.233888504985E+04    0.35107E-02   -0.28140E-04  3621   0.791E-03    0.152E+00
RMM:  45    -0.233888092960E+04    0.41203E-02   -0.56396E-04  4315   0.111E-02    0.141E+00
RMM:  46    -0.233887621630E+04    0.47133E-02   -0.90049E-04  4504   0.137E-02    0.132E+00
RMM:  47    -0.233887074093E+04    0.54754E-02   -0.13043E-03  4716   0.170E-02    0.131E+00
RMM:  48    -0.233886589687E+04    0.48441E-02   -0.11374E-03  4593   0.164E-02    0.136E+00
RMM:  49    -0.233886642293E+04   -0.52606E-03   -0.52679E-05  2990   0.562E-03    0.136E+00
RMM:  50    -0.233886679852E+04   -0.37559E-03   -0.92858E-06  2740   0.242E-03    0.135E+00
RMM:  51    -0.233886663636E+04    0.16215E-03   -0.19070E-06  2510   0.146E-03    0.135E+00
RMM:  52    -0.233886616829E+04    0.46807E-03   -0.85193E-06  2645   0.168E-03    0.136E+00
RMM:  53    -0.233886627652E+04   -0.10823E-03   -0.76380E-07  2291   0.126E-03    0.136E+00
RMM:  54    -0.233886636023E+04   -0.83704E-04   -0.50684E-07  1470   0.675E-04    0.136E+00
RMM:  55    -0.233886665548E+04   -0.29526E-03   -0.49477E-06  2131   0.119E-03    0.135E+00
RMM:  56    -0.233886802529E+04   -0.13698E-02   -0.76450E-05  2957   0.410E-03    0.132E+00
RMM:  57    -0.233886949301E+04   -0.14677E-02   -0.12804E-04  3279   0.520E-03    0.129E+00
RMM:  58    -0.233887129980E+04   -0.18068E-02   -0.16557E-04  3218   0.607E-03    0.128E+00
RMM:  59    -0.233887151640E+04   -0.21661E-03   -0.18479E-05  2786   0.362E-03    0.127E+00
RMM:  60    -0.233887211997E+04   -0.60356E-03   -0.25566E-05  2832   0.284E-03    0.127E+00
RMM:  61    -0.233887376051E+04   -0.16405E-02   -0.11561E-04  3225   0.524E-03    0.127E+00
RMM:  62    -0.233887636164E+04   -0.26011E-02   -0.32951E-04  3832   0.891E-03    0.127E+00
RMM:  63    -0.233887492345E+04    0.14382E-02   -0.65257E-05  2927   0.549E-03    0.126E+00
RMM:  64    -0.233887294262E+04    0.19808E-02   -0.19622E-04  3450   0.680E-03    0.127E+00
RMM:  65    -0.233887197874E+04    0.96388E-03   -0.66741E-05  2903   0.465E-03    0.127E+00
RMM:  66    -0.233887197577E+04    0.29695E-05   -0.67060E-06  2361   0.248E-03
  18 F= -.23605258E+04 E0= -.23605189E+04  d E =-.602023E-01  mag=     4.7050
       N       E                     dE             d eps       ncg     rms          rms(c)
DAV:   1    -0.233885793539E+04    0.14043E-01   -0.38799E+00  4552   0.200E+00    0.181E+00
RMM:   2    -0.233892004049E+04   -0.62105E-01   -0.28187E-01  5986   0.360E-01    0.194E+00
RMM:   3    -0.233892049380E+04   -0.45331E-03   -0.56821E-02  5237   0.147E-01    0.284E+00
RMM:   4    -0.233892898459E+04   -0.84908E-02   -0.48458E-02  5127   0.101E-01    0.247E+00
RMM:   5    -0.233888232708E+04    0.46658E-01   -0.10466E-01  5906   0.150E-01    0.310E+00
RMM:   6    -0.233880170056E+04    0.80627E-01   -0.32386E-02  5274   0.865E-02    0.369E+00
RMM:   7    -0.233888370058E+04   -0.82000E-01   -0.60564E-02  4992   0.117E-01    0.188E+00
RMM:   8    -0.233889477451E+04   -0.11074E-01   -0.27926E-02  5100   0.899E-02    0.130E+00
RMM:   9    -0.233890585464E+04   -0.11080E-01   -0.22823E-02  5367   0.764E-02    0.153E+00
RMM:  10    -0.233891573423E+04   -0.98796E-02   -0.97828E-03  4969   0.572E-02    0.198E+00
RMM:  11    -0.233890039222E+04    0.15342E-01   -0.11522E-02  5074   0.522E-02    0.113E+00
RMM:  12    -0.233887680401E+04    0.23588E-01   -0.35707E-02  5136   0.906E-02    0.161E+00
RMM:  13    -0.233882086123E+04    0.55943E-01   -0.40483E-02  5300   0.104E-01    0.298E+00
RMM:  14    -0.233885204619E+04   -0.31185E-01   -0.45529E-03  5030   0.377E-02    0.233E+00
RMM:  15    -0.233889354569E+04   -0.41499E-01   -0.33635E-02  5338   0.860E-02    0.122E+00
RMM:  16    -0.233890121572E+04   -0.76700E-02   -0.54856E-03  4936   0.441E-02    0.121E+00
RMM:  17    -0.233891070494E+04   -0.94892E-02   -0.42839E-03  5422   0.292E-02    0.142E+00
RMM:  18    -0.233891328539E+04   -0.25804E-02   -0.62555E-04  4331   0.160E-02    0.146E+00
RMM:  19    -0.233891314753E+04    0.13786E-03   -0.71433E-05  3068   0.471E-03    0.145E+00
RMM:  20    -0.233891353978E+04   -0.39225E-03   -0.10485E-05  2934   0.301E-03    0.146E+00
RMM:  21    -0.233889979614E+04    0.13744E-01   -0.59776E-03  5173   0.348E-02    0.118E+00
RMM:  22    -0.233888049164E+04    0.19304E-01   -0.12941E-02  5329   0.551E-02    0.153E+00
RMM:  23    -0.233887417531E+04    0.63163E-02   -0.24734E-03  4978   0.265E-02    0.171E+00
RMM:  24    -0.233887718177E+04   -0.30065E-02   -0.16518E-04  3384   0.717E-03    0.163E+00
RMM:  25    -0.233889403898E+04   -0.16857E-01   -0.71538E-03  5193   0.390E-02    0.125E+00
RMM:  26    -0.233891400771E+04   -0.19969E-01   -0.13932E-02  5363   0.574E-02    0.154E+00
RMM:  27    -0.233892859472E+04   -0.14587E-01   -0.72340E-03  5331   0.417E-02    0.192E+00
RMM:  28    -0.233892665842E+04    0.19363E-02   -0.46142E-04  3780   0.139E-02    0.180E+00
RMM:  29    -0.233893027574E+04   -0.36173E-02   -0.36625E-04  3894   0.857E-03    0.194E+00
RMM:  30    -0.233893025223E+04    0.23512E-04   -0.25452E-05  2897   0.482E-03    0.191E+00
RMM:  31    -0.233893025971E+04   -0.74796E-05   -0.79196E-06  2717   0.199E-03
  19 F= -.23605846E+04 E0= -.23605707E+04  d E =-.587735E-01  mag=     3.7180
       N       E                     dE             d eps       ncg     rms          rms(c)
DAV:   1    -0.233888621406E+04    0.44038E-01   -0.35174E+00  4552   0.191E+00    0.172E+00
RMM:   2    -0.233895303895E+04   -0.66825E-01   -0.24082E-01  6038   0.338E-01    0.232E+00
RMM:   3    -0.233894450710E+04    0.85319E-02   -0.35238E-02  5483   0.144E-01    0.221E+00
RMM:   4    -0.233890452007E+04    0.39987E-01   -0.10072E-01  5380   0.139E-01    0.237E+00
RMM:   5    -0.233884366351E+04    0.60857E-01   -0.66224E-02  5120   0.125E-01    0.192E+00
RMM:   6    -0.233876491355E+04    0.78750E-01   -0.44438E-02  5326   0.113E-01    0.276E+00
RMM:   7    -0.233890905365E+04   -0.14414E+00   -0.15606E-01  4848   0.187E-01    0.236E+00
RMM:   8    -0.233896100122E+04   -0.51948E-01   -0.71405E-02  4958   0.147E-01    0.230E+00
RMM:   9    -0.233897763386E+04   -0.16633E-01   -0.23947E-02  5907   0.747E-02    0.186E+00
RMM:  10    -0.233898548864E+04   -0.78548E-02   -0.92069E-02  5044   0.143E-01    0.142E+00
RMM:  11    -0.233898118125E+04    0.43074E-02   -0.74726E-02  5326   0.127E-01    0.208E+00
RMM:  12    -0.233899071718E+04   -0.95359E-02   -0.54134E-03  4750   0.560E-02    0.153E+00
RMM:  13    -0.233899980636E+04   -0.90892E-02   -0.10786E-02  5298   0.479E-02    0.126E+00
RMM:  14    -0.233901335882E+04   -0.13552E-01   -0.13291E-02  5161   0.579E-02    0.821E-01
RMM:  15    -0.233901970587E+04   -0.63470E-02   -0.26058E-03  4434   0.327E-02    0.900E-01
RMM:  16    -0.233902558090E+04   -0.58750E-02   -0.17984E-03  4695   0.227E-02    0.624E-01
RMM:  17    -0.233902823567E+04   -0.26548E-02   -0.19839E-03  4924   0.233E-02    0.254E-01
RMM:  18    -0.233903018470E+04   -0.19490E-02   -0.46503E-04  3956   0.134E-02    0.210E-01
RMM:  19    -0.233903135814E+04   -0.11734E-02   -0.29611E-04  3948   0.108E-02    0.147E-01
RMM:  20    -0.233903203210E+04   -0.67396E-03   -0.46152E-04  4335   0.123E-02    0.260E-02
RMM:  21    -0.233903228902E+04   -0.25692E-03   -0.73985E-05  3508   0.676E-03    0.197E-02
RMM:  22    -0.233903236917E+04   -0.80148E-04   -0.17088E-05  2968   0.388E-03    0.520E-03
RMM:  23    -0.233903240017E+04   -0.31006E-04   -0.58414E-06  2814   0.283E-03    0.314E-03
RMM:  24    -0.233903241645E+04   -0.16276E-04   -0.42766E-06  2532   0.223E-03    0.350E-03
RMM:  25    -0.233903242022E+04   -0.37736E-05   -0.20807E-06  2485   0.189E-03
  20 F= -.23606862E+04 E0= -.23606862E+04  d E =-.101607E+00  mag=     1.9994
       N       E                     dE             d eps       ncg     rms          rms(c)
DAV:   1    -0.233903416804E+04   -0.17516E-02   -0.18220E-02  5400   0.137E-01    0.298E-02
RMM:   2    -0.233903427645E+04   -0.10841E-03   -0.10260E-03  5972   0.235E-02    0.375E-02
RMM:   3    -0.233903426844E+04    0.80105E-05   -0.90222E-05  2947   0.783E-03
  21 F= -.23606881E+04 E0= -.23606881E+04  d E =-.188003E-02  mag=     1.9996
       N       E                     dE             d eps       ncg     rms          rms(c)
DAV:   1    -0.233904036534E+04   -0.60889E-02   -0.30194E-01  4624   0.557E-01    0.126E-01
RMM:   2    -0.233904222988E+04   -0.18645E-02   -0.16910E-02  6170   0.943E-02    0.178E-01
RMM:   3    -0.233904195825E+04    0.27162E-03   -0.14602E-03  4616   0.289E-02    0.873E-02
RMM:   4    -0.233904185871E+04    0.99541E-04   -0.17093E-04  3468   0.856E-03    0.436E-02
RMM:   5    -0.233904191373E+04   -0.55012E-04   -0.15146E-04  3810   0.851E-03    0.858E-02
RMM:   6    -0.233904184046E+04    0.73260E-04   -0.63374E-05  3059   0.648E-03    0.143E-02
RMM:   7    -0.233904183954E+04    0.92950E-06   -0.11068E-05  2926   0.376E-03
  22 F= -.23606958E+04 E0= -.23606958E+04  d E =-.770532E-02  mag=     1.9998
       N       E                     dE             d eps       ncg     rms          rms(c)
DAV:   1    -0.233905024844E+04   -0.84080E-02   -0.35874E+00  4552   0.192E+00    0.414E-01
RMM:   2    -0.233907068644E+04   -0.20438E-01   -0.18907E-01  6113   0.316E-01    0.560E-01
RMM:   3    -0.233906847000E+04    0.22164E-02   -0.16791E-02  5457   0.109E-01    0.304E-01
RMM:   4    -0.233906728991E+04    0.11801E-02   -0.18475E-03  4852   0.270E-02    0.143E-01
RMM:   5    -0.233906788013E+04   -0.59022E-03   -0.14870E-03  5638   0.246E-02    0.279E-01
RMM:   6    -0.233906708219E+04    0.79794E-03   -0.71883E-04  5559   0.164E-02    0.467E-02
RMM:   7    -0.233906707118E+04    0.11013E-04   -0.95453E-05  2990   0.649E-03    0.342E-02
RMM:   8    -0.233906705473E+04    0.16448E-04   -0.27375E-05  2926   0.396E-03    0.147E-02
RMM:   9    -0.233906705191E+04    0.28273E-05   -0.14419E-05  2958   0.294E-03
  23 F= -.23607215E+04 E0= -.23607215E+04  d E =-.256941E-01  mag=     1.9999
       N       E                     dE             d eps       ncg     rms          rms(c)
DAV:   1    -0.233850760343E+04    0.55945E+00   -0.79204E+01  4552   0.903E+00    0.200E+00
RMM:   2    -0.233905591397E+04   -0.54831E+00   -0.51129E+00  6288   0.161E+00    0.268E+00
RMM:   3    -0.233899035560E+04    0.65558E-01   -0.47613E-01  5861   0.517E-01    0.137E+00
RMM:   4    -0.233896699810E+04    0.23358E-01   -0.48880E-02  5103   0.131E-01    0.749E-01
RMM:   5    -0.233897255579E+04   -0.55577E-02   -0.31608E-02  5965   0.104E-01    0.979E-01
RMM:   6    -0.233896319206E+04    0.93637E-02   -0.18144E-02  5833   0.765E-02    0.593E-01
RMM:   7    -0.233896069732E+04    0.24947E-02   -0.61637E-03  5640   0.437E-02    0.269E-01
RMM:   8    -0.233895995611E+04    0.74121E-03   -0.69371E-04  5003   0.157E-02    0.803E-02
RMM:   9    -0.233895985622E+04    0.99888E-04   -0.30412E-04  4153   0.118E-02    0.292E-02
RMM:  10    -0.233895985088E+04    0.53366E-05   -0.11426E-04  3622   0.787E-03    0.118E-02
RMM:  11    -0.233895985158E+04   -0.70159E-06   -0.13592E-05  2947   0.498E-03
  24 F= -.23606119E+04 E0= -.23606119E+04  d E =0.109602E+00  mag=     1.9998
       N       E                     dE             d eps       ncg     rms          rms(c)
DAV:   1    -0.233892238920E+04    0.37462E-01   -0.18018E+00  4524   0.132E+00    0.392E-01
RMM:   2    -0.233895623205E+04   -0.33843E-01   -0.34740E-01  6519   0.294E-01    0.513E-01
RMM:   3    -0.233895813638E+04   -0.19043E-02   -0.44304E-02  6232   0.121E-01    0.402E-01
RMM:   4    -0.233895676985E+04    0.13665E-02   -0.34179E-03  5191   0.254E-02    0.149E-01
RMM:   5    -0.233895669782E+04    0.72027E-04   -0.85411E-04  4949   0.148E-02    0.155E-01
RMM:   6    -0.233895640397E+04    0.29385E-03   -0.72626E-04  4819   0.148E-02    0.732E-02
RMM:   7    -0.233895646967E+04   -0.65703E-04   -0.31501E-04  3877   0.100E-02    0.948E-02
RMM:   8    -0.233895636223E+04    0.10744E-03   -0.95417E-05  2956   0.675E-03    0.173E-02
RMM:   9    -0.233895636510E+04   -0.28667E-05   -0.16802E-05  2973   0.376E-03
  25 F= -.23606081E+04 E0= -.23606081E+04  d E =0.383149E-02  mag=     1.9999
       N       E                     dE             d eps       ncg     rms          rms(c)
DAV:   1    -0.233894908136E+04    0.72809E-02   -0.54693E-01  4608   0.742E-01    0.231E-01
RMM:   2    -0.233895916490E+04   -0.10084E-01   -0.99435E-02  6415   0.163E-01    0.330E-01
RMM:   3    -0.233895924818E+04   -0.83281E-04   -0.12182E-02  5908   0.692E-02    0.204E-01
RMM:   4    -0.233895886600E+04    0.38218E-03   -0.10344E-03  4008   0.146E-02    0.745E-02
RMM:   5    -0.233895887675E+04   -0.10759E-04   -0.22826E-04  3482   0.911E-03    0.934E-02
RMM:   6    -0.233895877817E+04    0.98582E-04   -0.18649E-04  3918   0.867E-03    0.446E-02
RMM:   7    -0.233895878143E+04   -0.32586E-05   -0.90289E-05  2988   0.695E-03
  26 F= -.23606103E+04 E0= -.23606102E+04  d E =-.217738E-02  mag=     1.9999
       N       E                     dE             d eps       ncg     rms          rms(c)
DAV:   1    -0.233897402740E+04   -0.15249E-01   -0.64891E+00  4552   0.262E+00    0.583E-01
RMM:   2    -0.233901760890E+04   -0.43581E-01   -0.39192E-01  6245   0.450E-01    0.881E-01
RMM:   3    -0.233901164539E+04    0.59635E-02   -0.36197E-02  5666   0.146E-01    0.399E-01
RMM:   4    -0.233900973514E+04    0.19102E-02   -0.40737E-03  4937   0.376E-02    0.202E-01
RMM:   5    -0.233901088018E+04   -0.11450E-02   -0.24524E-03  5889   0.309E-02    0.396E-01
RMM:   6    -0.233900929129E+04    0.15889E-02   -0.15273E-03  5728   0.235E-02    0.709E-02
RMM:   7    -0.233900927863E+04    0.12658E-04   -0.21428E-04  3322   0.109E-02    0.502E-02
RMM:   8    -0.233900924635E+04    0.32284E-04   -0.57256E-05  2933   0.507E-03    0.213E-02
RMM:   9    -0.233900924801E+04   -0.16594E-05   -0.20855E-05  2965   0.374E-03
  27 F= -.23606611E+04 E0= -.23606611E+04  d E =-.508796E-01  mag=     1.9999
       N       E                     dE             d eps       ncg     rms          rms(c)
DAV:   1    -0.233901630035E+04   -0.70540E-02   -0.70809E+00  4552   0.274E+00    0.612E-01
RMM:   2    -0.233906672409E+04   -0.50424E-01   -0.46373E-01  6296   0.478E-01    0.898E-01
RMM:   3    -0.233906119773E+04    0.55264E-02   -0.41978E-02  5726   0.153E-01    0.435E-01
RMM:   4    -0.233905898608E+04    0.22116E-02   -0.48324E-03  5022   0.399E-02    0.226E-01
RMM:   5    -0.233906015170E+04   -0.11656E-02   -0.25209E-03  5894   0.301E-02    0.412E-01
RMM:   6    -0.233905843894E+04    0.17128E-02   -0.19172E-03  5494   0.264E-02    0.784E-02
RMM:   7    -0.233905842075E+04    0.18191E-04   -0.31762E-04  3665   0.137E-02    0.589E-02
RMM:   8    -0.233905837094E+04    0.49805E-04   -0.68032E-05  2944   0.519E-03    0.225E-02
RMM:   9    -0.233905836875E+04    0.21905E-05   -0.24404E-05  2964   0.389E-03
  28 F= -.23607106E+04 E0= -.23607106E+04  d E =-.494800E-01  mag=     1.9999
       N       E                     dE             d eps       ncg     rms          rms(c)
DAV:   1    -0.233901503750E+04    0.43333E-01   -0.20639E+01  4552   0.467E+00    0.103E+00
RMM:   2    -0.233915532549E+04   -0.14029E+00   -0.12981E+00  6290   0.805E-01    0.148E+00
RMM:   3    -0.233914084431E+04    0.14481E-01   -0.11587E-01  5733   0.261E-01    0.742E-01
RMM:   4    -0.233913433055E+04    0.65138E-02   -0.13282E-02  5063   0.675E-02    0.384E-01
RMM:   5    -0.233913783497E+04   -0.35044E-02   -0.74429E-03  6074   0.514E-02    0.712E-01
RMM:   6    -0.233913272117E+04    0.51138E-02   -0.54860E-03  5521   0.442E-02    0.122E-01
RMM:   7    -0.233913268672E+04    0.34450E-04   -0.84637E-04  4566   0.225E-02    0.958E-02
[...]
RMM:   6    -0.233970463738E+04    0.14027E-03   -0.15774E-04  3715   0.726E-03    0.170E-02
RMM:   7    -0.233970463699E+04    0.39081E-06   -0.23505E-05  2900   0.413E-03
 172 F= -.23613501E+04 E0= -.23613501E+04  d E =-.343532E-02  mag=     2.0000
       N       E                     dE             d eps       ncg     rms          rms(c)
DAV:   1    -0.233968841607E+04    0.16221E-01   -0.22353E+00  4520   0.122E+00    0.416E-01
RMM:   2    -0.233971475854E+04   -0.26342E-01   -0.26467E-01  6719   0.265E-01    0.449E-01
RMM:   3    -0.233971583183E+04   -0.10733E-02   -0.26774E-02  6066   0.877E-02    0.363E-01
RMM:   4    -0.233971435740E+04    0.14744E-02   -0.28705E-03  4905   0.239E-02    0.169E-01
RMM:   5    -0.233971481261E+04   -0.45521E-03   -0.12357E-03  5058   0.160E-02    0.269E-01
RMM:   6    -0.233971406928E+04    0.74333E-03   -0.87871E-04  4914   0.149E-02    0.414E-02
RMM:   7    -0.233971406705E+04    0.22229E-05   -0.12075E-04  3123   0.719E-03    0.340E-02
RMM:   8    -0.233971405137E+04    0.15686E-04   -0.35630E-05  2883   0.393E-03    0.140E-02
RMM:   9    -0.233971404750E+04    0.38684E-05   -0.80709E-06  2811   0.214E-03
 173 F= -.23613583E+04 E0= -.23613583E+04  d E =-.811324E-02  mag=     2.0000
       N       E                     dE             d eps       ncg     rms          rms(c)
DAV:   1    -0.233971136306E+04    0.26883E-02   -0.85875E-02  4520   0.243E-01    0.810E-02
RMM:   2    -0.233971228644E+04   -0.92338E-03   -0.92192E-03  6461   0.509E-02    0.899E-02
RMM:   3    -0.233971230775E+04   -0.21317E-04   -0.92153E-04  3394   0.173E-02    0.696E-02
RMM:   4    -0.233971225225E+04    0.55505E-04   -0.99486E-05  3025   0.592E-03    0.316E-02
RMM:   5    -0.233971227368E+04   -0.21434E-04   -0.52941E-05  2949   0.420E-03    0.551E-02
RMM:   6    -0.233971224226E+04    0.31426E-04   -0.35706E-05  3000   0.423E-03    0.849E-03
RMM:   7    -0.233971224248E+04   -0.22500E-06   -0.74447E-06  2689   0.280E-03
 174 F= -.23613567E+04 E0= -.23613567E+04  d E =0.156157E-02  mag=     2.0000
       N       E                     dE             d eps       ncg     rms          rms(c)
DAV:   1    -0.233971305232E+04   -0.81006E-03   -0.54169E-02  4520   0.192E-01    0.647E-02
RMM:   2    -0.233971367693E+04   -0.62460E-03   -0.64508E-03  6331   0.416E-02    0.604E-02
RMM:   3    -0.233971372887E+04   -0.51944E-04   -0.67576E-04  3175   0.148E-02    0.616E-02
RMM:   4    -0.233971368681E+04    0.42062E-04   -0.71786E-05  2957   0.496E-03    0.264E-02
RMM:   5    -0.233971369808E+04   -0.11272E-04   -0.34215E-05  2877   0.337E-03    0.416E-02
RMM:   6    -0.233971367942E+04    0.18655E-04   -0.23630E-05  2854   0.347E-03    0.717E-03
RMM:   7    -0.233971367923E+04    0.19788E-06   -0.44091E-06  2359   0.213E-03
 175 F= -.23613579E+04 E0= -.23613579E+04  d E =-.124227E-02  mag=     2.0000
       N       E                     dE             d eps       ncg     rms          rms(c)
DAV:   1    -0.233971383119E+04   -0.15176E-03   -0.72898E-04  4544   0.243E-02    0.865E-03
RMM:   2    -0.233971384118E+04   -0.99940E-05   -0.10177E-04  3150   0.601E-03    0.849E-03
RMM:   3    -0.233971384188E+04   -0.70185E-06   -0.12422E-05  2457   0.365E-03
 176 F= -.23613581E+04 E0= -.23613581E+04  d E =-.139074E-03  mag=     2.0000
       N       E                     dE             d eps       ncg     rms          rms(c)
DAV:   1    -0.233971417652E+04   -0.33534E-03   -0.44748E-03  4448   0.568E-02    0.208E-02
RMM:   2    -0.233971423910E+04   -0.62574E-04   -0.63121E-04  4818   0.135E-02    0.206E-02
RMM:   3    -0.233971424264E+04   -0.35421E-05   -0.67384E-05  2798   0.562E-03
 177 F= -.23613584E+04 E0= -.23613584E+04  d E =-.347582E-03  mag=     2.0000
       N       E                     dE             d eps       ncg     rms          rms(c)
DAV:   1    -0.233971482706E+04   -0.58797E-03   -0.17948E-02  4520   0.111E-01    0.409E-02
RMM:   2    -0.233971506779E+04   -0.24073E-03   -0.24357E-03  5573   0.256E-02    0.400E-02
RMM:   3    -0.233971508317E+04   -0.15377E-04   -0.25759E-04  2986   0.960E-03    0.351E-02
RMM:   4    -0.233971506946E+04    0.13703E-04   -0.28383E-05  2919   0.345E-03    0.174E-02
RMM:   5    -0.233971507487E+04   -0.54025E-05   -0.14478E-05  2683   0.226E-03
 178 F= -.23613591E+04 E0= -.23613591E+04  d E =-.703816E-03  mag=     2.0000
       N       E                     dE             d eps       ncg     rms          rms(c)
DAV:   1    -0.233971558709E+04   -0.51762E-03   -0.12389E-02  4488   0.926E-02    0.329E-02
RMM:   2    -0.233971575768E+04   -0.17059E-03   -0.16859E-03  5397   0.215E-02    0.385E-02
RMM:   3    -0.233971576189E+04   -0.42176E-05   -0.17634E-04  2958   0.786E-03    0.279E-02
RMM:   4    -0.233971575367E+04    0.82196E-05   -0.18116E-05  2793   0.290E-03
 179 F= -.23613597E+04 E0= -.23613597E+04  d E =-.575737E-03  mag=     2.0000
       N       E                     dE             d eps       ncg     rms          rms(c)
DAV:   1    -0.233971642848E+04   -0.66659E-03   -0.32410E-02  4520   0.149E-01    0.555E-02
RMM:   2    -0.233971689255E+04   -0.46407E-03   -0.43006E-03  5960   0.333E-02    0.877E-02
RMM:   3    -0.233971686896E+04    0.23585E-04   -0.49293E-04  3091   0.123E-02    0.435E-02
RMM:   4    -0.233971685296E+04    0.16007E-04   -0.48694E-05  2964   0.422E-03    0.185E-02
RMM:   5    -0.233971686138E+04   -0.84232E-05   -0.21946E-05  2852   0.273E-03
 180 F= -.23613607E+04 E0= -.23613607E+04  d E =-.946963E-03  mag=     2.0000
       N       E                     dE             d eps       ncg     rms          rms(c)
DAV:   1    -0.233971752175E+04   -0.66879E-03   -0.28039E-02  4520   0.138E-01    0.492E-02
RMM:   2    -0.233971789863E+04   -0.37689E-03   -0.36459E-03  5704   0.318E-02    0.609E-02
RMM:   3    -0.233971789857E+04    0.61395E-07   -0.39718E-04  3074   0.113E-02    0.399E-02
RMM:   4    -0.233971788227E+04    0.16299E-04   -0.40589E-05  2935   0.408E-03    0.205E-02
RMM:   5    -0.233971788349E+04   -0.12122E-05   -0.15551E-05  2668   0.217E-03
 181 F= -.23613615E+04 E0= -.23613615E+04  d E =-.869746E-03  mag=     2.0000
       N       E                     dE             d eps       ncg     rms          rms(c)
DAV:   1    -0.233971852409E+04   -0.64182E-03   -0.24483E-02  4520   0.129E-01    0.480E-02
RMM:   2    -0.233971886889E+04   -0.34480E-03   -0.32665E-03  5656   0.291E-02    0.633E-02
RMM:   3    -0.233971885403E+04    0.14867E-04   -0.34989E-04  3045   0.108E-02    0.368E-02
RMM:   4    -0.233971884476E+04    0.92630E-05   -0.43705E-05  2938   0.411E-03
 182 F= -.23613623E+04 E0= -.23613623E+04  d E =-.816536E-03  mag=     2.0000
       N       E                     dE             d eps       ncg     rms          rms(c)
DAV:   1    -0.233970576456E+04    0.13089E-01   -0.63818E-01  4520   0.655E-01    0.227E-01
RMM:   2    -0.233971441136E+04   -0.86468E-02   -0.84387E-02  6700   0.146E-01    0.289E-01
RMM:   3    -0.233971442090E+04   -0.95414E-05   -0.83841E-03  5394   0.487E-02    0.188E-01
RMM:   4    -0.233971406068E+04    0.36022E-03   -0.90275E-04  3804   0.130E-02    0.896E-02
RMM:   5    -0.233971413164E+04   -0.70960E-04   -0.28186E-04  3574   0.848E-03    0.122E-01
RMM:   6    -0.233971397214E+04    0.15950E-03   -0.25044E-04  3993   0.892E-03    0.278E-02
RMM:   7    -0.233971397282E+04   -0.68292E-06   -0.54155E-05  2949   0.541E-03
 183 F= -.23613582E+04 E0= -.23613582E+04  d E =0.415360E-02  mag=     2.0000
       N       E                     dE             d eps       ncg     rms          rms(c)
DAV:   1    -0.233971426519E+04   -0.29305E-03   -0.18515E-01  4520   0.352E-01    0.120E-01
RMM:   2    -0.233971662235E+04   -0.23572E-02   -0.23898E-02  6622   0.785E-02    0.122E-01
RMM:   3    -0.233971676424E+04   -0.14189E-03   -0.24877E-03  4126   0.266E-02    0.106E-01
RMM:   4    -0.233971663238E+04    0.13186E-03   -0.25516E-04  3111   0.794E-03    0.482E-02
RMM:   5    -0.233971666888E+04   -0.36498E-04   -0.10712E-04  3063   0.554E-03    0.777E-02
RMM:   6    -0.233971660593E+04    0.62941E-04   -0.78008E-05  3192   0.554E-03    0.111E-02
RMM:   7    -0.233971660509E+04    0.84600E-06   -0.10273E-05  2782   0.328E-03
 184 F= -.23613604E+04 E0= -.23613604E+04  d E =-.224913E-02  mag=     2.0000
       N       E                     dE             d eps       ncg     rms          rms(c)
DAV:   1    -0.233971559002E+04    0.10159E-02   -0.16976E-02  4520   0.107E-01    0.363E-02
RMM:   2    -0.233971580212E+04   -0.21210E-03   -0.21698E-03  5527   0.240E-02    0.344E-02
RMM:   3    -0.233971581570E+04   -0.13585E-04   -0.22760E-04  2968   0.886E-03    0.305E-02
RMM:   4    -0.233971580410E+04    0.11607E-04   -0.23562E-05  2587   0.320E-03    0.141E-02
RMM:   5    -0.233971580545E+04   -0.13575E-05   -0.11529E-05  2235   0.201E-03
 185 F= -.23613598E+04 E0= -.23613598E+04  d E =0.678304E-03  mag=     2.0000
       N       E                     dE             d eps       ncg     rms          rms(c)
DAV:   1    -0.233971480047E+04    0.10036E-02   -0.17328E-02  4520   0.111E-01    0.382E-02
RMM:   2    -0.233971502251E+04   -0.22204E-03   -0.22033E-03  5653   0.251E-02    0.425E-02
RMM:   3    -0.233971502804E+04   -0.55274E-05   -0.23621E-04  3003   0.939E-03    0.319E-02
RMM:   4    -0.233971501725E+04    0.10792E-04   -0.25095E-05  2883   0.351E-03    0.147E-02
RMM:   5    -0.233971502082E+04   -0.35740E-05   -0.95942E-06  2543   0.191E-03
 186 F= -.23613591E+04 E0= -.23613591E+04  d E =0.671689E-03  mag=     2.0000
       N       E                     dE             d eps       ncg     rms          rms(c)
DAV:   1    -0.233971159123E+04    0.34260E-02   -0.11278E-01  4520   0.279E-01    0.949E-02
RMM:   2    -0.233971299497E+04   -0.14037E-02   -0.14014E-02  6504   0.613E-02    0.106E-01
RMM:   3    -0.233971304237E+04   -0.47405E-04   -0.14160E-03  3665   0.206E-02    0.825E-02
RMM:   4    -0.233971297217E+04    0.70201E-04   -0.15484E-04  3036   0.673E-03    0.408E-02
RMM:   5    -0.233971298358E+04   -0.11407E-04   -0.60432E-05  2881   0.432E-03    0.523E-02
RMM:   6    -0.233971296092E+04    0.22659E-04   -0.51872E-05  3066   0.446E-03    0.237E-02
RMM:   7    -0.233971295487E+04    0.60444E-05   -0.16715E-05  2697   0.340E-03
 187 F= -.23613573E+04 E0= -.23613573E+04  d E =0.176795E-02  mag=     2.0000
       N       E                     dE             d eps       ncg     rms          rms(c)
DAV:   1    -0.233970610120E+04    0.68597E-02   -0.28742E-01  4520   0.448E-01    0.150E-01
RMM:   2    -0.233970971890E+04   -0.36177E-02   -0.36353E-02  6676   0.985E-02    0.159E-01
RMM:   3    -0.233970988028E+04   -0.16138E-03   -0.35716E-03  4730   0.325E-02    0.132E-01
RMM:   4    -0.233970968442E+04    0.19586E-03   -0.38359E-04  3220   0.934E-03    0.585E-02
RMM:   5    -0.233970974468E+04   -0.60263E-04   -0.15681E-04  3264   0.664E-03    0.958E-02
RMM:   6    -0.233970965029E+04    0.94391E-04   -0.11419E-04  3419   0.650E-03    0.160E-02
RMM:   7    -0.233970965129E+04   -0.10038E-05   -0.20531E-05  2887   0.397E-03
 188 F= -.23613545E+04 E0= -.23613545E+04  d E =0.282125E-02  mag=     2.0000
       N       E                     dE             d eps       ncg     rms          rms(c)
DAV:   1    -0.233970814525E+04    0.15050E-02   -0.31431E-02  4520   0.148E-01    0.507E-02
RMM:   2    -0.233970854767E+04   -0.40242E-03   -0.40155E-03  5821   0.334E-02    0.549E-02
RMM:   3    -0.233970856324E+04   -0.15572E-04   -0.40091E-04  3072   0.115E-02    0.444E-02
RMM:   4    -0.233970854211E+04    0.21131E-04   -0.43400E-05  2940   0.417E-03    0.200E-02
RMM:   5    -0.233970854775E+04   -0.56359E-05   -0.16192E-05  2720   0.230E-03
 189 F= -.23613536E+04 E0= -.23613536E+04  d E =0.940473E-03  mag=     2.0000
       N       E                     dE             d eps       ncg     rms          rms(c)
DAV:   1    -0.233970933665E+04   -0.79453E-03   -0.54902E-02  4520   0.194E-01    0.643E-02
RMM:   2    -0.233971000400E+04   -0.66735E-03   -0.66977E-03  6243   0.427E-02    0.702E-02
RMM:   3    -0.233971003521E+04   -0.31205E-04   -0.69619E-04  3184   0.147E-02    0.579E-02
RMM:   4    -0.233971000149E+04    0.33714E-04   -0.74223E-05  2938   0.489E-03    0.286E-02
RMM:   5    -0.233971000389E+04   -0.23954E-05   -0.25080E-05  2778   0.285E-03
 190 F= -.23613548E+04 E0= -.23613548E+04  d E =-.124526E-02  mag=     2.0000
       N       E                     dE             d eps       ncg     rms          rms(c)
DAV:   1    -0.233971040975E+04   -0.40826E-03   -0.67768E-03  4344   0.694E-02    0.285E-02
RMM:   2    -0.233971052587E+04   -0.11612E-03   -0.10106E-03  5153   0.167E-02    0.446E-02
RMM:   3    -0.233971051071E+04    0.15163E-04   -0.12695E-04  2894   0.667E-03    0.190E-02
RMM:   4    -0.233971050897E+04    0.17394E-05   -0.15239E-05  2498   0.257E-03
 191 F= -.23613552E+04 E0= -.23613552E+04  d E =-.427557E-03  mag=     2.0000
       N       E                     dE             d eps       ncg     rms          rms(c)
DAV:   1    -0.233970893251E+04    0.15782E-02   -0.41016E-01  4520   0.532E-01    0.185E-01
RMM:   2    -0.233971460387E+04   -0.56714E-02   -0.55955E-02  6718   0.121E-01    0.211E-01
RMM:   3    -0.233971470916E+04   -0.10529E-03   -0.57952E-03  5317   0.409E-02    0.145E-01
RMM:   4    -0.233971445070E+04    0.25846E-03   -0.58931E-04  3561   0.109E-02    0.611E-02
RMM:   5    -0.233971445457E+04   -0.38733E-05   -0.23349E-04  3957   0.851E-03    0.674E-02
RMM:   6    -0.233971442212E+04    0.32450E-04   -0.78839E-05  2988   0.613E-03    0.394E-02
RMM:   7    -0.233971441116E+04    0.10961E-04   -0.21775E-05  2813   0.343E-03    0.183E-02
RMM:   8    -0.233971440701E+04    0.41530E-05   -0.60796E-06  2595   0.219E-03
 192 F= -.23613586E+04 E0= -.23613586E+04  d E =-.332204E-02  mag=     2.0000
       N       E                     dE             d eps       ncg     rms          rms(c)
DAV:   1    -0.233969892954E+04    0.15482E-01   -0.16795E+00  4520   0.107E+00    0.372E-01
RMM:   2    -0.233972275076E+04   -0.23821E-01   -0.23533E-01  6735   0.247E-01    0.427E-01
RMM:   3    -0.233972323905E+04   -0.48829E-03   -0.24529E-02  6321   0.837E-02    0.291E-01
RMM:   4    -0.233972220047E+04    0.10386E-02   -0.24825E-03  4860   0.211E-02    0.123E-01
RMM:   5    -0.233972236889E+04   -0.16842E-03   -0.90584E-04  4877   0.151E-02    0.189E-01
RMM:   6    -0.233972204784E+04    0.32105E-03   -0.37469E-04  3828   0.108E-02    0.585E-02
RMM:   7    -0.233972202681E+04    0.21030E-04   -0.65303E-05  3041   0.530E-03    0.279E-02
RMM:   8    -0.233972201808E+04    0.87235E-05   -0.21712E-05  2877   0.359E-03
 193 F= -.23613650E+04 E0= -.23613650E+04  d E =-.642075E-02  mag=     2.0000
       N       E                     dE             d eps       ncg     rms          rms(c)
DAV:   1    -0.233971698004E+04    0.50468E-02   -0.20677E-01  4520   0.382E-01    0.124E-01
RMM:   2    -0.233971931154E+04   -0.23315E-02   -0.23426E-02  6606   0.816E-02    0.140E-01
RMM:   3    -0.233971940875E+04   -0.97211E-04   -0.24189E-03  4249   0.275E-02    0.114E-01
RMM:   4    -0.233971927226E+04    0.13649E-03   -0.25315E-04  3140   0.835E-03    0.462E-02
RMM:   5    -0.233971931782E+04   -0.45558E-04   -0.12141E-04  3265   0.624E-03    0.772E-02
RMM:   6    -0.233971924801E+04    0.69809E-04   -0.85392E-05  3218   0.607E-03    0.132E-02
RMM:   7    -0.233971924805E+04   -0.35812E-07   -0.13994E-05  2880   0.352E-03
 194 F= -.23613626E+04 E0= -.23613626E+04  d E =0.236165E-02  mag=     2.0000
       N       E                     dE             d eps       ncg     rms          rms(c)
DAV:   1    -0.233971714835E+04    0.20997E-02   -0.57810E-02  4520   0.205E-01    0.668E-02
RMM:   2    -0.233971780530E+04   -0.65695E-03   -0.64679E-03  6319   0.440E-02    0.813E-02
RMM:   3    -0.233971781308E+04   -0.77758E-05   -0.63486E-04  3242   0.147E-02    0.592E-02
RMM:   4    -0.233971777875E+04    0.34330E-04   -0.69845E-05  2982   0.513E-03    0.247E-02
RMM:   5    -0.233971779214E+04   -0.13391E-04   -0.31650E-05  2863   0.331E-03    0.411E-02
RMM:   6    -0.233971777284E+04    0.19293E-04   -0.23570E-05  2870   0.347E-03    0.660E-03
RMM:   7    -0.233971777306E+04   -0.21467E-06   -0.44226E-06  2397   0.214E-03
 195 F= -.23613613E+04 E0= -.23613613E+04  d E =0.126143E-02  mag=     2.0000
       N       E                     dE             d eps       ncg     rms          rms(c)
DAV:   1    -0.233971720353E+04    0.56931E-03   -0.64516E-03  4364   0.684E-02    0.224E-02
RMM:   2    -0.233971727702E+04   -0.73486E-04   -0.71856E-04  5051   0.150E-02    0.279E-02
RMM:   3    -0.233971727775E+04   -0.72882E-06   -0.74437E-05  2853   0.557E-03
 196 F= -.23613609E+04 E0= -.23613609E+04  d E =0.423668E-03  mag=     2.0000
       N       E                     dE             d eps       ncg     rms          rms(c)
DAV:   1    -0.233971815215E+04   -0.87513E-03   -0.60583E-02  4520   0.208E-01    0.653E-02
RMM:   2    -0.233971883839E+04   -0.68624E-03   -0.65955E-03  6302   0.439E-02    0.936E-02
RMM:   3    -0.233971881850E+04    0.19889E-04   -0.64990E-04  3298   0.148E-02    0.537E-02
RMM:   4    -0.233971879039E+04    0.28107E-04   -0.67173E-05  2990   0.487E-03    0.217E-02
RMM:   5    -0.233971880162E+04   -0.11232E-04   -0.27544E-05  2855   0.317E-03    0.376E-02
RMM:   6    -0.233971878448E+04    0.17147E-04   -0.21551E-05  2780   0.339E-03    0.650E-03
RMM:   7    -0.233971878462E+04   -0.14262E-06   -0.42612E-06  2198   0.208E-03
 197 F= -.23613622E+04 E0= -.23613622E+04  d E =-.129480E-02  mag=     2.0000
       N       E                     dE             d eps       ncg     rms          rms(c)
DAV:   1    -0.233971888779E+04   -0.10331E-03   -0.29695E-04  4304   0.148E-02    0.564E-03
RMM:   2    -0.233971889176E+04   -0.39713E-05   -0.36636E-05  2601   0.366E-03
 198 F= -.23613623E+04 E0= -.23613623E+04  d E =-.920090E-04  mag=     2.0000
       N       E                     dE             d eps       ncg     rms          rms(c)
DAV:   1    -0.233971988202E+04   -0.99423E-03   -0.54318E-02  4520   0.195E-01    0.689E-02
RMM:   2    -0.233972046378E+04   -0.58177E-03   -0.51146E-03  6520   0.403E-02    0.118E-01
RMM:   3    -0.233972036977E+04    0.94014E-04   -0.49790E-04  3246   0.135E-02    0.463E-02
RMM:   4    -0.233972034924E+04    0.20528E-04   -0.59245E-05  3051   0.480E-03    0.209E-02
RMM:   5    -0.233972035101E+04   -0.17690E-05   -0.32078E-05  3052   0.387E-03
 199 F= -.23613636E+04 E0= -.23613636E+04  d E =-.128522E-02  mag=     2.0000
       N       E                     dE             d eps       ncg     rms          rms(c)
DAV:   1    -0.233972054058E+04   -0.19134E-03   -0.35007E-01  4520   0.508E-01    0.169E-01
RMM:   2    -0.233972453759E+04   -0.39970E-02   -0.35029E-02  6651   0.107E-01    0.305E-01
RMM:   3    -0.233972388820E+04    0.64939E-03   -0.34682E-03  5496   0.341E-02    0.108E-01
RMM:   4    -0.233972378316E+04    0.10504E-03   -0.38379E-04  3541   0.904E-03    0.536E-02
RMM:   5    -0.233972385730E+04   -0.74138E-04   -0.21595E-04  3681   0.822E-03    0.898E-02
RMM:   6    -0.233972375887E+04    0.98431E-04   -0.84795E-05  3134   0.622E-03    0.265E-02
RMM:   7    -0.233972375197E+04    0.68987E-05   -0.12993E-05  2879   0.356E-03
 200 F= -.23613666E+04 E0= -.23613666E+04  d E =-.296381E-02  mag=     2.0000
       N       E                     dE             d eps       ncg     rms          rms(c)
DAV:   1    -0.233972457694E+04   -0.81806E-03   -0.31704E-02  4520   0.147E-01    0.509E-02
RMM:   2    -0.233972488152E+04   -0.30459E-03   -0.31290E-03  5989   0.309E-02    0.499E-02
RMM:   3    -0.233972490691E+04   -0.25389E-04   -0.32220E-04  3061   0.108E-02    0.525E-02
RMM:   4    -0.233972487983E+04    0.27082E-04   -0.36035E-05  2936   0.421E-03    0.180E-02
RMM:   5    -0.233972488728E+04   -0.74501E-05   -0.19777E-05  2858   0.269E-03
 201 F= -.23613675E+04 E0= -.23613675E+04  d E =-.985934E-03  mag=     2.0000
