       N       E                     dE             d eps       ncg     rms          rms(c)
DAV:   1     0.125372939845E+05    0.12537E+05   -0.81584E+05  4360   0.143E+03
DAV:   2    -0.104573391289E+04   -0.13583E+05   -0.13036E+05  5312   0.330E+02
DAV:   3    -0.245230078842E+04   -0.14066E+04   -0.13952E+04  5224   0.110E+02
DAV:   4    -0.249191380426E+04   -0.39613E+02   -0.39428E+02  6296   0.257E+01
DAV:   5    -0.249269466081E+04   -0.78086E+00   -0.77982E+00  5440   0.293E+00    0.170E+02
RMM:   6    -0.146294795257E+04    0.10297E+04   -0.19279E+03  4320   0.389E+01    0.736E+01
RMM:   7    -0.165043846085E+04   -0.18749E+03   -0.28561E+02  4967   0.135E+01    0.579E+01
RMM:   8    -0.167212633569E+04   -0.21688E+02   -0.69865E+01  4976   0.789E+00    0.388E+01
RMM:   9    -0.178637876853E+04   -0.11425E+03   -0.55481E+01  4392   0.769E+00    0.270E+01
RMM:  10    -0.193220582105E+04   -0.14583E+03   -0.55132E+01  4781   0.721E+00    0.183E+01
RMM:  11    -0.205167431328E+04   -0.11947E+03   -0.62319E+01  4530   0.601E+00    0.139E+01
RMM:  12    -0.221977066024E+04   -0.16810E+03   -0.16407E+02  4327   0.879E+00    0.765E+00
RMM:  13    -0.226680510566E+04   -0.47034E+02   -0.46250E+01  4595   0.496E+00    0.500E+00
RMM:  14    -0.228003075656E+04   -0.13226E+02   -0.15581E+01  4485   0.329E+00    0.280E+00
RMM:  15    -0.228404848348E+04   -0.40177E+01   -0.37780E+00  4762   0.164E+00    0.195E+00
RMM:  16    -0.228482378824E+04   -0.77530E+00   -0.52886E-01  4786   0.605E-01    0.727E-01
RMM:  17    -0.228537140799E+04   -0.54762E+00   -0.15811E-01  4560   0.346E-01    0.464E-01
RMM:  18    -0.228551319112E+04   -0.14178E+00   -0.64743E-02  4503   0.194E-01    0.310E-01
RMM:  19    -0.228554706315E+04   -0.33872E-01   -0.24431E-02  4552   0.139E-01    0.178E-01
RMM:  20    -0.228556489879E+04   -0.17836E-01   -0.98272E-03  4529   0.775E-02    0.148E-01
RMM:  21    -0.228557745714E+04   -0.12558E-01   -0.63135E-03  4459   0.584E-02    0.901E-02
RMM:  22    -0.228558555289E+04   -0.80958E-02   -0.47393E-03  4522   0.459E-02    0.761E-02
RMM:  23    -0.228558740646E+04   -0.18536E-02   -0.15748E-03  4365   0.314E-02    0.592E-02
RMM:  24    -0.228558848672E+04   -0.10803E-02   -0.10942E-03  4058   0.170E-02    0.497E-02
RMM:  25    -0.228558878853E+04   -0.30180E-03   -0.39800E-04  3844   0.137E-02    0.420E-02
RMM:  26    -0.228558901262E+04   -0.22409E-03   -0.73595E-04  3975   0.113E-02    0.302E-02
RMM:  27    -0.228558921992E+04   -0.20730E-03   -0.53191E-04  3559   0.107E-02    0.208E-02
RMM:  28    -0.228558937705E+04   -0.15713E-03   -0.45950E-04  3496   0.927E-03    0.139E-02
RMM:  29    -0.228558948085E+04   -0.10380E-03   -0.24897E-04  3095   0.755E-03    0.958E-03
RMM:  30    -0.228558955506E+04   -0.74206E-04   -0.23556E-04  3166   0.654E-03    0.549E-03
RMM:  31    -0.228558961334E+04   -0.58285E-04   -0.10683E-04  2936   0.536E-03    0.306E-03
RMM:  32    -0.228558963717E+04   -0.23829E-04   -0.25216E-05  2760   0.347E-03    0.312E-03
RMM:  33    -0.228558964437E+04   -0.71932E-05   -0.34603E-05  2800   0.329E-03
   1 F= -.23053763E+04 E0= -.23053763E+04  d E =-.230538E+04  mag=     0.0001
       N       E                     dE             d eps       ncg     rms          rms(c)
DAV:   1    -0.228512046259E+04    0.46917E+00   -0.12895E+02  4576   0.548E+00    0.454E+00
RMM:   2    -0.228824027259E+04   -0.31198E+01   -0.28395E+01  6300   0.193E+00    0.590E+00
RMM:   3    -0.228748046157E+04    0.75981E+00   -0.25322E+00  5070   0.928E-01    0.148E+00
RMM:   4    -0.228748422429E+04   -0.37627E-02   -0.42546E-01  5992   0.164E-01    0.852E-01
RMM:   5    -0.228748407534E+04    0.14895E-03   -0.50856E-02  5632   0.100E-01    0.825E-01
RMM:   6    -0.228747160807E+04    0.12467E-01   -0.14036E-02  5755   0.548E-02    0.119E-01
RMM:   7    -0.228747148089E+04    0.12718E-03   -0.31608E-03  4863   0.207E-02    0.924E-02
RMM:   8    -0.228747128072E+04    0.20017E-03   -0.40430E-04  4236   0.133E-02    0.378E-02
RMM:   9    -0.228747124699E+04    0.33732E-04   -0.12254E-04  3406   0.703E-03    0.140E-02
RMM:  10    -0.228747124171E+04    0.52769E-05   -0.28241E-05  2931   0.521E-03
   2 F= -.23072678E+04 E0= -.23072678E+04  d E =-.189149E+01  mag=     0.0000
       N       E                     dE             d eps       ncg     rms          rms(c)
DAV:   1    -0.228673112274E+04    0.74012E+00   -0.56219E+01  4512   0.383E+00    0.265E+00
RMM:   2    -0.228778075359E+04   -0.10496E+01   -0.11317E+01  6323   0.132E+00    0.173E+00
RMM:   3    -0.228779750057E+04   -0.16747E-01   -0.12275E+00  5225   0.628E-01    0.828E-01
RMM:   4    -0.228780412504E+04   -0.66245E-02   -0.17382E-01  5788   0.106E-01    0.578E-01
RMM:   5    -0.228779781409E+04    0.63110E-02   -0.18341E-02  5636   0.552E-02    0.347E-01
RMM:   6    -0.228779594534E+04    0.18688E-02   -0.27535E-03  5069   0.267E-02    0.115E-01
RMM:   7    -0.228779587448E+04    0.70859E-04   -0.16651E-03  4733   0.197E-02    0.917E-02
RMM:   8    -0.228779568872E+04    0.18576E-03   -0.19794E-04  3600   0.906E-03    0.257E-02
RMM:   9    -0.228779567578E+04    0.12944E-04   -0.89013E-05  2970   0.610E-03    0.694E-03
RMM:  10    -0.228779567804E+04   -0.22630E-05   -0.25422E-05  2829   0.432E-03
   3 F= -.23075977E+04 E0= -.23075977E+04  d E =-.222141E+01  mag=     0.0000
       N       E                     dE             d eps       ncg     rms          rms(c)
DAV:   1    -0.228771965888E+04    0.76017E-01   -0.64615E+00  4672   0.131E+00    0.896E-01
RMM:   2    -0.228782950181E+04   -0.10984E+00   -0.12394E+00  6043   0.368E-01    0.495E-01
RMM:   3    -0.228784206874E+04   -0.12567E-01   -0.18401E-01  5152   0.245E-01    0.485E-01
RMM:   4    -0.228784070990E+04    0.13588E-02   -0.15204E-02  5346   0.377E-02    0.225E-01
RMM:   5    -0.228784011930E+04    0.59061E-03   -0.12047E-03  4316   0.133E-02    0.118E-01
RMM:   6    -0.228784000013E+04    0.11916E-03   -0.70061E-04  4341   0.135E-02    0.321E-02
RMM:   7    -0.228783996720E+04    0.32937E-04   -0.11058E-04  2910   0.634E-03    0.146E-02
RMM:   8    -0.228783996117E+04    0.60217E-05   -0.23172E-05  2762   0.373E-03
   4 F= -.23076402E+04 E0= -.23076402E+04  d E =-.226394E+01  mag=     0.0000
       N       E                     dE             d eps       ncg     rms          rms(c)
DAV:   1    -0.228783958007E+04    0.38712E-03   -0.43241E-01  4728   0.334E-01    0.230E-01
RMM:   2    -0.228784663996E+04   -0.70599E-02   -0.78935E-02  6142   0.965E-02    0.138E-01
RMM:   3    -0.228784710231E+04   -0.46236E-03   -0.90167E-03  4266   0.493E-02    0.959E-02
RMM:   4    -0.228784708329E+04    0.19026E-04   -0.10286E-03  3232   0.915E-03    0.511E-02
RMM:   5    -0.228784703425E+04    0.49042E-04   -0.90840E-05  2897   0.473E-03    0.200E-02
RMM:   6    -0.228784703297E+04    0.12786E-05   -0.19953E-05  2733   0.372E-03
   5 F= -.23076478E+04 E0= -.23076478E+04  d E =-.227148E+01  mag=     0.0000
       N       E                     dE             d eps       ncg     rms          rms(c)
DAV:   1    -0.228784693943E+04    0.94820E-04   -0.74417E-03  4756   0.442E-02    0.302E-02
RMM:   2    -0.228784705891E+04   -0.11948E-03   -0.13458E-03  4575   0.127E-02    0.172E-02
RMM:   3    -0.228784707271E+04   -0.13798E-04   -0.19496E-04  2822   0.799E-03    0.155E-02
RMM:   4    -0.228784707160E+04    0.11112E-05   -0.16799E-05  2338   0.171E-03
   6 F= -.23076479E+04 E0= -.23076479E+04  d E =-.227158E+01  mag=     0.0000
       N       E                     dE             d eps       ncg     rms          rms(c)
DAV:   1    -0.228787335041E+04   -0.26278E-01   -0.12288E+01  4400   0.352E+00    0.128E+00
RMM:   2    -0.228792482638E+04   -0.51476E-01   -0.63503E-01  5838   0.627E-01    0.513E-01
RMM:   3    -0.228791893356E+04    0.58928E-02   -0.44293E-02  5130   0.228E-01    0.310E-01
RMM:   4    -0.228791706950E+04    0.18641E-02   -0.10287E-02  4991   0.732E-02    0.223E-01
RMM:   5    -0.228791569287E+04    0.13766E-02   -0.33537E-03  5241   0.534E-02    0.724E-02
RMM:   6    -0.228791538208E+04    0.31079E-03   -0.55429E-04  5078   0.175E-02    0.386E-02
RMM:   7    -0.228791524063E+04    0.14144E-03   -0.21175E-04  4291   0.114E-02    0.192E-02
RMM:   8    -0.228791517907E+04    0.61562E-04   -0.11046E-04  4211   0.897E-03    0.101E-02
RMM:   9    -0.228791518162E+04   -0.25457E-05   -0.44618E-05  3500   0.662E-03
   7 F= -.23077170E+04 E0= -.23077170E+04  d E =-.690952E-01  mag=     0.0000
       N       E                     dE             d eps       ncg     rms          rms(c)
DAV:   1    -0.228791525021E+04   -0.71135E-04   -0.89485E-03  5160   0.940E-02    0.349E-02
RMM:   2    -0.228791529165E+04   -0.41440E-04   -0.46779E-04  5358   0.182E-02    0.135E-02
RMM:   3    -0.228791529055E+04    0.10980E-05   -0.34393E-05  2845   0.691E-03
   8 F= -.23077170E+04 E0= -.23077170E+04  d E =-.691788E-01  mag=     0.0000
       N       E                     dE             d eps       ncg     rms          rms(c)
DAV:   1    -0.228795887637E+04   -0.43585E-01   -0.77588E+00  4368   0.241E+00    0.529E-01
RMM:   2    -0.228798497529E+04   -0.26099E-01   -0.29314E-01  5899   0.381E-01    0.262E-01
RMM:   3    -0.228798402902E+04    0.94627E-03   -0.12954E-02  5180   0.112E-01    0.182E-01
RMM:   4    -0.228798385764E+04    0.17138E-03   -0.28184E-03  4784   0.323E-02    0.153E-01
RMM:   5    -0.228798343919E+04    0.41845E-03   -0.11033E-03  4859   0.252E-02    0.351E-02
RMM:   6    -0.228798342407E+04    0.15121E-04   -0.15458E-04  3696   0.105E-02    0.195E-02
RMM:   7    -0.228798341327E+04    0.10797E-04   -0.32394E-05  2878   0.556E-03    0.774E-03
RMM:   8    -0.228798341094E+04    0.23327E-05   -0.11662E-05  2787   0.349E-03
   9 F= -.23077858E+04 E0= -.23077858E+04  d E =-.687192E-01  mag=     0.0000
       N       E                     dE             d eps       ncg     rms          rms(c)
DAV:   1    -0.228794657119E+04    0.36842E-01   -0.26847E+01  4344   0.449E+00    0.981E-01
RMM:   2    -0.228803731242E+04   -0.90741E-01   -0.10212E+00  5903   0.707E-01    0.481E-01
RMM:   3    -0.228803460755E+04    0.27049E-02   -0.51061E-02  5200   0.211E-01    0.334E-01
RMM:   4    -0.228803348326E+04    0.11243E-02   -0.99817E-03  4670   0.632E-02    0.203E-01
RMM:   5    -0.228803290023E+04    0.58303E-03   -0.27459E-03  4981   0.438E-02    0.108E-01
RMM:   6    -0.228803270046E+04    0.19977E-03   -0.39963E-04  4587   0.158E-02    0.414E-02
RMM:   7    -0.228803266168E+04    0.38778E-04   -0.16748E-04  3593   0.108E-02    0.151E-02
RMM:   8    -0.228803264941E+04    0.12269E-04   -0.51656E-05  3235   0.552E-03    0.591E-03
RMM:   9    -0.228803264733E+04    0.20790E-05   -0.10882E-05  2777   0.441E-03
  10 F= -.23078357E+04 E0= -.23078357E+04  d E =-.118697E+00  mag=     0.0000
       N       E                     dE             d eps       ncg     rms          rms(c)
DAV:   1    -0.228804734076E+04   -0.14691E-01   -0.60447E+00  4480   0.225E+00    0.603E-01
RMM:   2    -0.228808371795E+04   -0.36377E-01   -0.39872E-01  6229   0.404E-01    0.295E-01
RMM:   3    -0.228808358079E+04    0.13717E-03   -0.29448E-02  5547   0.120E-01    0.195E-01
RMM:   4    -0.228808314793E+04    0.43286E-03   -0.38581E-03  4761   0.303E-02    0.127E-01
RMM:   5    -0.228808280279E+04    0.34514E-03   -0.12362E-03  4930   0.254E-02    0.495E-02
RMM:   6    -0.228808273912E+04    0.63671E-04   -0.13483E-04  4179   0.124E-02    0.187E-02
RMM:   7    -0.228808271886E+04    0.20256E-04   -0.49380E-05  3159   0.495E-03    0.997E-03
RMM:   8    -0.228808270873E+04    0.10128E-04   -0.20144E-05  2836   0.458E-03    0.650E-03
RMM:   9    -0.228808270737E+04    0.13593E-05   -0.75789E-06  2772   0.363E-03
  11 F= -.23078871E+04 E0= -.23078871E+04  d E =-.513704E-01  mag=     0.0000
       N       E                     dE             d eps       ncg     rms          rms(c)
DAV:   1    -0.228800195281E+04    0.80756E-01   -0.19661E+01  4344   0.409E+00    0.107E+00
RMM:   2    -0.228812359468E+04   -0.12164E+00   -0.13299E+00  6264   0.734E-01    0.544E-01
RMM:   3    -0.228812051942E+04    0.30753E-02   -0.71023E-02  5687   0.206E-01    0.375E-01
RMM:   4    -0.228811884954E+04    0.16699E-02   -0.11311E-02  5056   0.533E-02    0.241E-01
RMM:   5    -0.228811751804E+04    0.13315E-02   -0.45810E-03  4940   0.470E-02    0.704E-02
RMM:   6    -0.228811735632E+04    0.16172E-03   -0.41983E-04  4767   0.242E-02    0.327E-02
RMM:   7    -0.228811729121E+04    0.65111E-04   -0.17633E-04  4020   0.804E-03    0.140E-02
RMM:   8    -0.228811726980E+04    0.21404E-04   -0.40657E-05  3173   0.705E-03    0.677E-03
RMM:   9    -0.228811726786E+04    0.19392E-05   -0.22470E-05  3016   0.449E-03
  12 F= -.23079239E+04 E0= -.23079239E+04  d E =-.882021E-01  mag=    -0.0000
       N       E                     dE             d eps       ncg     rms          rms(c)
DAV:   1    -0.228812187636E+04   -0.46066E-02   -0.21239E+00  4592   0.140E+00    0.479E-01
RMM:   2    -0.228814059467E+04   -0.18718E-01   -0.20593E-01  6140   0.275E-01    0.221E-01
RMM:   3    -0.228814066128E+04   -0.66615E-04   -0.17173E-02  5662   0.925E-02    0.136E-01
RMM:   4    -0.228814039897E+04    0.26231E-03   -0.20781E-03  4636   0.237E-02    0.832E-02
RMM:   5    -0.228814023935E+04    0.15963E-03   -0.54386E-04  4818   0.191E-02    0.317E-02
RMM:   6    -0.228814020262E+04    0.36726E-04   -0.71199E-05  3795   0.829E-03    0.141E-02
RMM:   7    -0.228814018894E+04    0.13684E-04   -0.31032E-05  2920   0.495E-03    0.741E-03
RMM:   8    -0.228814018139E+04    0.75485E-05   -0.14037E-05  2792   0.395E-03
  13 F= -.23079475E+04 E0= -.23079475E+04  d E =-.235700E-01  mag=    -0.0000
       N       E                     dE             d eps       ncg     rms          rms(c)
DAV:   1    -0.228813152874E+04    0.86602E-02   -0.16980E+00  4384   0.125E+00    0.428E-01
RMM:   2    -0.228814657379E+04   -0.15045E-01   -0.16595E-01  6077   0.245E-01    0.194E-01
RMM:   3    -0.228814663054E+04   -0.56750E-04   -0.13754E-02  5504   0.826E-02    0.119E-01
RMM:   4    -0.228814642822E+04    0.20232E-03   -0.17096E-03  4550   0.216E-02    0.719E-02
RMM:   5    -0.228814630335E+04    0.12487E-03   -0.41850E-04  4665   0.172E-02    0.294E-02
RMM:   6    -0.228814627257E+04    0.30783E-04   -0.60219E-05  3534   0.750E-03    0.134E-02
RMM:   7    -0.228814626051E+04    0.12058E-04   -0.26763E-05  2869   0.482E-03    0.702E-03
RMM:   8    -0.228814625421E+04    0.63004E-05   -0.14289E-05  2793   0.391E-03
  14 F= -.23079542E+04 E0= -.23079542E+04  d E =-.302158E-01  mag=     0.0000
       N       E                     dE             d eps       ncg     rms          rms(c)
DAV:   1    -0.228815436279E+04   -0.81023E-02   -0.16202E+00  4400   0.113E+00    0.296E-01
RMM:   2    -0.228816171545E+04   -0.73527E-02   -0.82708E-02  5762   0.187E-01    0.154E-01
RMM:   3    -0.228816170902E+04    0.64294E-05   -0.51963E-03  4998   0.710E-02    0.109E-01
RMM:   4    -0.228816155849E+04    0.15053E-03   -0.84208E-04  4606   0.168E-02    0.733E-02
RMM:   5    -0.228816147710E+04    0.81385E-04   -0.31178E-04  4459   0.148E-02    0.178E-02
RMM:   6    -0.228816147241E+04    0.46934E-05   -0.49468E-05  2996   0.729E-03
  15 F= -.23079694E+04 E0= -.23079694E+04  d E =-.152784E-01  mag=     0.0000
       N       E                     dE             d eps       ncg     rms          rms(c)
DAV:   1    -0.228815495830E+04    0.65188E-02   -0.26726E+00  4368   0.145E+00    0.381E-01
RMM:   2    -0.228816719194E+04   -0.12234E-01   -0.13719E-01  5795   0.241E-01    0.195E-01
RMM:   3    -0.228816722177E+04   -0.29831E-04   -0.90156E-03  5113   0.850E-02    0.140E-01
RMM:   4    -0.228816698775E+04    0.23402E-03   -0.13940E-03  4813   0.210E-02    0.961E-02
RMM:   5    -0.228816684807E+04    0.13968E-03   -0.51200E-04  4653   0.180E-02    0.246E-02
RMM:   6    -0.228816683781E+04    0.10265E-04   -0.79825E-05  3459   0.901E-03    0.123E-02
RMM:   7    -0.228816683227E+04    0.55329E-05   -0.18345E-05  2794   0.436E-03
  16 F= -.23079748E+04 E0= -.23079748E+04  d E =-.206832E-01  mag=     0.0000
       N       E                     dE             d eps       ncg     rms          rms(c)
DAV:   1    -0.228816905964E+04   -0.22218E-02   -0.14690E+00  4384   0.116E+00    0.338E-01
RMM:   2    -0.228817816942E+04   -0.91098E-02   -0.99806E-02  5872   0.200E-01    0.172E-01
RMM:   3    -0.228817799110E+04    0.17832E-03   -0.59678E-03  5160   0.720E-02    0.118E-01
RMM:   4    -0.228817777051E+04    0.22059E-03   -0.93769E-04  4572   0.174E-02    0.673E-02
RMM:   5    -0.228817768212E+04    0.88390E-04   -0.33186E-04  4657   0.156E-02    0.153E-02
RMM:   6    -0.228817767423E+04    0.78944E-05   -0.31179E-05  2954   0.677E-03
  17 F= -.23079862E+04 E0= -.23079862E+04  d E =-.113695E-01  mag=     0.0000
       N       E                     dE             d eps       ncg     rms          rms(c)
DAV:   1    -0.228811689060E+04    0.60792E-01   -0.11229E+01  4328   0.321E+00    0.925E-01
RMM:   2    -0.228818523103E+04   -0.68340E-01   -0.74959E-01  5891   0.562E-01    0.436E-01
RMM:   3    -0.228818522281E+04    0.82238E-05   -0.63681E-02  5343   0.205E-01    0.281E-01
RMM:   4    -0.228818395258E+04    0.12702E-02   -0.62049E-03  4798   0.447E-02    0.176E-01
RMM:   5    -0.228818336748E+04    0.58510E-03   -0.23920E-03  4908   0.404E-02    0.608E-02
RMM:   6    -0.228818327539E+04    0.92086E-04   -0.27783E-04  4958   0.169E-02    0.251E-02
RMM:   7    -0.228818324940E+04    0.25996E-04   -0.73830E-05  3399   0.623E-03    0.124E-02
RMM:   8    -0.228818324164E+04    0.77564E-05   -0.24053E-05  2882   0.506E-03
  18 F= -.23079931E+04 E0= -.23079931E+04  d E =-.182894E-01  mag=     0.0000
       N       E                     dE             d eps       ncg     rms          rms(c)
DAV:   1    -0.228817950027E+04    0.37491E-02   -0.10001E+00  4416   0.958E-01    0.277E-01
RMM:   2    -0.228818555838E+04   -0.60581E-02   -0.66240E-02  5970   0.165E-01    0.138E-01
RMM:   3    -0.228818546116E+04    0.97222E-04   -0.38610E-03  5253   0.559E-02    0.958E-02
RMM:   4    -0.228818531276E+04    0.14841E-03   -0.52227E-04  4499   0.137E-02    0.557E-02
RMM:   5    -0.228818525559E+04    0.57169E-04   -0.22300E-04  4396   0.129E-02    0.114E-02
RMM:   6    -0.228818525253E+04    0.30580E-05   -0.21557E-05  2828   0.666E-03
  19 F= -.23079948E+04 E0= -.23079948E+04  d E =-.199136E-01  mag=     0.0000
       N       E                     dE             d eps       ncg     rms          rms(c)
DAV:   1    -0.228818161610E+04    0.36395E-02   -0.13111E+00  4352   0.107E+00    0.383E-01
RMM:   2    -0.228819616431E+04   -0.14548E-01   -0.15829E-01  6102   0.205E-01    0.215E-01
RMM:   3    -0.228819597707E+04    0.18724E-03   -0.10396E-02  5506   0.720E-02    0.128E-01
RMM:   4    -0.228819571945E+04    0.25762E-03   -0.13800E-03  4574   0.178E-02    0.735E-02
RMM:   5    -0.228819559287E+04    0.12658E-03   -0.31501E-04  4472   0.141E-02    0.188E-02
RMM:   6    -0.228819557612E+04    0.16748E-04   -0.60224E-05  3555   0.691E-03    0.771E-03
RMM:   7    -0.228819557006E+04    0.60623E-05   -0.13101E-05  2809   0.484E-03
  20 F= -.23080057E+04 E0= -.23080057E+04  d E =-.109289E-01  mag=    -0.0000
       N       E                     dE             d eps       ncg     rms          rms(c)
DAV:   1    -0.228819156845E+04    0.40077E-02   -0.49559E-01  4512   0.660E-01    0.237E-01
RMM:   2    -0.228819699704E+04   -0.54286E-02   -0.59411E-02  6067   0.127E-01    0.121E-01
RMM:   3    -0.228819708684E+04   -0.89800E-04   -0.53689E-03  5195   0.468E-02    0.665E-02
RMM:   4    -0.228819703251E+04    0.54330E-04   -0.59581E-04  4100   0.113E-02    0.428E-02
RMM:   5    -0.228819699080E+04    0.41707E-04   -0.10416E-04  3515   0.925E-03    0.147E-02
RMM:   6    -0.228819698346E+04    0.73420E-05   -0.27325E-05  2906   0.529E-03
  21 F= -.23080075E+04 E0= -.23080075E+04  d E =-.127058E-01  mag=    -0.0000
       N       E                     dE             d eps       ncg     rms          rms(c)
DAV:   1    -0.228819975064E+04   -0.27598E-02   -0.10101E+00  4368   0.912E-01    0.217E-01
RMM:   2    -0.228820510299E+04   -0.53523E-02   -0.57889E-02  5858   0.152E-01    0.117E-01
RMM:   3    -0.228820508895E+04    0.14033E-04   -0.42422E-03  4906   0.579E-02    0.771E-02
RMM:   4    -0.228820501403E+04    0.74923E-04   -0.64364E-04  4415   0.146E-02    0.564E-02
RMM:   5    -0.228820495699E+04    0.57041E-04   -0.25477E-04  4127   0.132E-02    0.224E-02
RMM:   6    -0.228820494490E+04    0.12085E-04   -0.35187E-05  2973   0.584E-03    0.800E-03
RMM:   7    -0.228820494227E+04    0.26310E-05   -0.10782E-05  2791   0.387E-03
  22 F= -.23080154E+04 E0= -.23080154E+04  d E =-.792484E-02  mag=    -0.0000
       N       E                     dE             d eps       ncg     rms          rms(c)
DAV:   1    -0.228818395335E+04    0.20992E-01   -0.44826E+00  4344   0.192E+00    0.459E-01
RMM:   2    -0.228820788662E+04   -0.23933E-01   -0.25844E-01  5717   0.320E-01    0.245E-01
RMM:   3    -0.228820813986E+04   -0.25324E-03   -0.22644E-02  5053   0.133E-01    0.164E-01
RMM:   4    -0.228820780841E+04    0.33145E-03   -0.29714E-03  4561   0.304E-02    0.103E-01
RMM:   5    -0.228820762392E+04    0.18450E-03   -0.98201E-04  4719   0.260E-02    0.513E-02
RMM:   6    -0.228820756658E+04    0.57339E-04   -0.14061E-04  4197   0.951E-03    0.176E-02
RMM:   7    -0.228820755491E+04    0.11662E-04   -0.39714E-05  2871   0.575E-03    0.920E-03
RMM:   8    -0.228820755154E+04    0.33764E-05   -0.16663E-05  2839   0.361E-03
  23 F= -.23080179E+04 E0= -.23080179E+04  d E =-.104383E-01  mag=     0.0000
       N       E                     dE             d eps       ncg     rms          rms(c)
DAV:   1    -0.228820569789E+04    0.18570E-02   -0.59716E-01  4528   0.695E-01    0.167E-01
RMM:   2    -0.228820900410E+04   -0.33062E-02   -0.35253E-02  5780   0.116E-01    0.955E-02
RMM:   3    -0.228820893410E+04    0.70003E-04   -0.17624E-03  4764   0.422E-02    0.662E-02
RMM:   4    -0.228820887862E+04    0.55474E-04   -0.32530E-04  4018   0.109E-02    0.492E-02
RMM:   5    -0.228820883319E+04    0.45438E-04   -0.18140E-04  4159   0.106E-02    0.836E-03
RMM:   6    -0.228820883094E+04    0.22463E-05   -0.16752E-05  2804   0.607E-03
  24 F= -.23080192E+04 E0= -.23080192E+04  d E =-.117563E-01  mag=     0.0000
       N       E                     dE             d eps       ncg     rms          rms(c)
DAV:   1    -0.228820410546E+04    0.47277E-02   -0.14314E+00  4344   0.112E+00    0.336E-01
RMM:   2    -0.228821534000E+04   -0.11235E-01   -0.12064E-01  5817   0.204E-01    0.157E-01
RMM:   3    -0.228821546759E+04   -0.12758E-03   -0.10702E-02  5118   0.842E-02    0.967E-02
RMM:   4    -0.228821534585E+04    0.12174E-03   -0.13599E-03  4541   0.197E-02    0.596E-02
RMM:   5    -0.228821527191E+04    0.73937E-04   -0.29307E-04  4302   0.153E-02    0.303E-02
RMM:   6    -0.228821524969E+04    0.22223E-04   -0.52235E-05  3225   0.629E-03    0.103E-02
RMM:   7    -0.228821524227E+04    0.74158E-05   -0.14029E-05  2800   0.455E-03
  25 F= -.23080258E+04 E0= -.23080258E+04  d E =-.662243E-02  mag=    -0.0000
       N       E                     dE             d eps       ncg     rms          rms(c)
DAV:   1    -0.228821256484E+04    0.26849E-02   -0.44232E-01  4400   0.625E-01    0.186E-01
RMM:   2    -0.228821600861E+04   -0.34438E-02   -0.37119E-02  5888   0.115E-01    0.869E-02
RMM:   3    -0.228821604793E+04   -0.39311E-04   -0.32095E-03  4857   0.465E-02    0.539E-02
RMM:   4    -0.228821600911E+04    0.38819E-04   -0.43412E-04  4115   0.114E-02    0.344E-02
RMM:   5    -0.228821598366E+04    0.25442E-04   -0.97410E-05  3479   0.962E-03    0.173E-02
RMM:   6    -0.228821597619E+04    0.74775E-05   -0.18649E-05  2809   0.483E-03
  26 F= -.23080267E+04 E0= -.23080267E+04  d E =-.746707E-02  mag=     0.0000
       N       E                     dE             d eps       ncg     rms          rms(c)
DAV:   1    -0.228821172693E+04    0.42567E-02   -0.67590E-01  4368   0.761E-01    0.259E-01
RMM:   2    -0.228821974350E+04   -0.80166E-02   -0.85404E-02  6107   0.149E-01    0.150E-01
RMM:   3    -0.228821960928E+04    0.13422E-03   -0.38787E-03  5204   0.493E-02    0.100E-01
RMM:   4    -0.228821947690E+04    0.13238E-03   -0.64570E-04  4206   0.127E-02    0.547E-02
RMM:   5    -0.228821942979E+04    0.47116E-04   -0.18120E-04  4037   0.104E-02    0.127E-02
RMM:   6    -0.228821942707E+04    0.27235E-05   -0.19084E-05  2809   0.558E-03
  27 F= -.23080304E+04 E0= -.23080304E+04  d E =-.373864E-02  mag=    -0.0000
       N       E                     dE             d eps       ncg     rms          rms(c)
DAV:   1    -0.228821645448E+04    0.29753E-02   -0.31009E-01  4400   0.515E-01    0.174E-01
RMM:   2    -0.228822004414E+04   -0.35897E-02   -0.38348E-02  6055   0.996E-02    0.984E-02
RMM:   3    -0.228821998382E+04    0.60321E-04   -0.17027E-03  4672   0.331E-02    0.666E-02
RMM:   4    -0.228821992555E+04    0.58267E-04   -0.28808E-04  3414   0.889E-03    0.370E-02
RMM:   5    -0.228821990364E+04    0.21915E-04   -0.84868E-05  3397   0.751E-03    0.853E-03
RMM:   6    -0.228821990236E+04    0.12781E-05   -0.10850E-05  2788   0.490E-03
  28 F= -.23080311E+04 E0= -.23080311E+04  d E =-.440296E-02  mag=    -0.0000
       N       E                     dE             d eps       ncg     rms          rms(c)
DAV:   1    -0.228822097457E+04   -0.10709E-02   -0.70186E-01  4340   0.764E-01    0.222E-01
RMM:   2    -0.228822342795E+04   -0.24534E-02   -0.27667E-02  5671   0.125E-01    0.107E-01
RMM:   3    -0.228822330803E+04    0.11992E-03   -0.17473E-03  4945   0.420E-02    0.778E-02
RMM:   4    -0.228822320742E+04    0.10060E-03   -0.30764E-04  4284   0.118E-02    0.462E-02
RMM:   5    -0.228822316699E+04    0.40434E-04   -0.14759E-04  4138   0.109E-02    0.985E-03
RMM:   6    -0.228822316436E+04    0.26320E-05   -0.19117E-05  2801   0.570E-03
  29 F= -.23080343E+04 E0= -.23080343E+04  d E =-.317995E-02  mag=    -0.0000
       N       E                     dE             d eps       ncg     rms          rms(c)
DAV:   1    -0.228822209933E+04    0.10677E-02   -0.47111E-01  4416   0.626E-01    0.182E-01
RMM:   2    -0.228822375219E+04   -0.16529E-02   -0.18651E-02  5679   0.103E-01    0.887E-02
RMM:   3    -0.228822366627E+04    0.85918E-04   -0.11517E-03  4774   0.323E-02    0.642E-02
RMM:   4    -0.228822359571E+04    0.70561E-04   -0.20284E-04  3941   0.992E-03    0.383E-02
RMM:   5    -0.228822356644E+04    0.29278E-04   -0.10405E-04  3876   0.919E-03    0.822E-03
RMM:   6    -0.228822356448E+04    0.19586E-05   -0.14458E-05  2794   0.543E-03
  30 F= -.23080346E+04 E0= -.23080346E+04  d E =-.350939E-02  mag=    -0.0000
       N       E                     dE             d eps       ncg     rms          rms(c)
DAV:   1    -0.228822324436E+04    0.32207E-03   -0.63573E-01  4328   0.712E-01    0.186E-01
RMM:   2    -0.228822634064E+04   -0.30963E-02   -0.33753E-02  5873   0.121E-01    0.111E-01
RMM:   3    -0.228822625409E+04    0.86554E-04   -0.21199E-03  4984   0.368E-02    0.735E-02
RMM:   4    -0.228822616908E+04    0.85003E-04   -0.26955E-04  4070   0.101E-02    0.423E-02
RMM:   5    -0.228822613561E+04    0.33477E-04   -0.10837E-04  3882   0.942E-03    0.809E-03
RMM:   6    -0.228822613388E+04    0.17243E-05   -0.13308E-05  2794   0.538E-03
  31 F= -.23080371E+04 E0= -.23080371E+04  d E =-.254801E-02  mag=     0.0000
       N       E                     dE             d eps       ncg     rms          rms(c)
DAV:   1    -0.228822044786E+04    0.56877E-02   -0.15405E+00  4328   0.111E+00    0.289E-01
RMM:   2    -0.228822791385E+04   -0.74660E-02   -0.81423E-02  5886   0.187E-01    0.172E-01
RMM:   3    -0.228822769084E+04    0.22302E-03   -0.51213E-03  5350   0.543E-02    0.114E-01
RMM:   4    -0.228822748115E+04    0.20969E-03   -0.64652E-04  4571   0.152E-02    0.660E-02
RMM:   5    -0.228822739384E+04    0.87309E-04   -0.27611E-04  4447   0.137E-02    0.130E-02
RMM:   6    -0.228822738618E+04    0.76593E-05   -0.28655E-05  2868   0.714E-03
  32 F= -.23080384E+04 E0= -.23080384E+04  d E =-.375796E-02  mag=    -0.0000
       N       E                     dE             d eps       ncg     rms          rms(c)
DAV:   1    -0.228821956922E+04    0.78246E-02   -0.98914E-01  4328   0.903E-01    0.319E-01
RMM:   2    -0.228823069357E+04   -0.11124E-01   -0.11975E-01  6062   0.175E-01    0.184E-01
RMM:   3    -0.228823055637E+04    0.13720E-03   -0.69556E-03  5411   0.528E-02    0.113E-01
RMM:   4    -0.228823038217E+04    0.17420E-03   -0.10236E-03  4499   0.142E-02    0.629E-02
RMM:   5    -0.228823030311E+04    0.79055E-04   -0.20543E-04  4104   0.113E-02    0.156E-02
RMM:   6    -0.228823029909E+04    0.40186E-05   -0.29846E-05  2903   0.608E-03
  33 F= -.23080415E+04 E0= -.23080415E+04  d E =-.309827E-02  mag=    -0.0000
       N       E                     dE             d eps       ncg     rms          rms(c)
DAV:   1    -0.228822996142E+04    0.34170E-03   -0.33683E-02  4976   0.166E-01    0.586E-02
RMM:   2    -0.228823030524E+04   -0.34383E-03   -0.37336E-03  6133   0.330E-02    0.294E-02
RMM:   3    -0.228823031343E+04   -0.81912E-05   -0.32828E-04  3030   0.113E-02    0.168E-02
RMM:   4    -0.228823031061E+04    0.28208E-05   -0.34747E-05  2809   0.363E-03
  34 F= -.23080415E+04 E0= -.23080415E+04  d E =-.314276E-02  mag=    -0.0000
       N       E                     dE             d eps       ncg     rms          rms(c)
DAV:   1    -0.228823118422E+04   -0.87078E-03   -0.35064E-01  4340   0.547E-01    0.162E-01
RMM:   2    -0.228823249557E+04   -0.13113E-02   -0.14803E-02  5616   0.903E-02    0.829E-02
RMM:   3    -0.228823243293E+04    0.62639E-04   -0.97354E-04  4576   0.336E-02    0.585E-02
RMM:   4    -0.228823237223E+04    0.60695E-04   -0.18218E-04  4063   0.948E-03    0.347E-02
RMM:   5    -0.228823234450E+04    0.27730E-04   -0.74296E-05  3627   0.864E-03    0.703E-03
RMM:   6    -0.228823234212E+04    0.23810E-05   -0.12551E-05  2787   0.478E-03
  35 F= -.23080434E+04 E0= -.23080434E+04  d E =-.188076E-02  mag=    -0.0000
       N       E                     dE             d eps       ncg     rms          rms(c)
DAV:   1    -0.228823130450E+04    0.10400E-02   -0.41218E-01  4328   0.593E-01    0.176E-01
RMM:   2    -0.228823286635E+04   -0.15619E-02   -0.17638E-02  5616   0.991E-02    0.878E-02
RMM:   3    -0.228823277825E+04    0.88097E-04   -0.11180E-03  4726   0.332E-02    0.609E-02
RMM:   4    -0.228823271125E+04    0.67000E-04   -0.20807E-04  4151   0.101E-02    0.383E-02
RMM:   5    -0.228823267541E+04    0.35841E-04   -0.91878E-05  3766   0.918E-03    0.808E-03
RMM:   6    -0.228823267186E+04    0.35532E-05   -0.14599E-05  2789   0.519E-03
  36 F= -.23080435E+04 E0= -.23080435E+04  d E =-.204546E-02  mag=     0.0000
       N       E                     dE             d eps       ncg     rms          rms(c)
DAV:   1    -0.228823258741E+04    0.88002E-04   -0.54830E-02  4544   0.216E-01    0.637E-02
RMM:   2    -0.228823279289E+04   -0.20548E-03   -0.22883E-03  5844   0.364E-02    0.318E-02
RMM:   3    -0.228823278176E+04    0.11125E-04   -0.13989E-04  3256   0.119E-02    0.225E-02
RMM:   4    -0.228823277415E+04    0.76137E-05   -0.25738E-05  2807   0.450E-03
  37 F= -.23080437E+04 E0= -.23080437E+04  d E =-.220801E-02  mag=    -0.0000
       N       E                     dE             d eps       ncg     rms          rms(c)
DAV:   1    -0.228823289264E+04   -0.11088E-03   -0.42286E-01  4328   0.606E-01    0.170E-01
RMM:   2    -0.228823468179E+04   -0.17891E-02   -0.19954E-02  5744   0.101E-01    0.819E-02
RMM:   3    -0.228823461949E+04    0.62298E-04   -0.12729E-03  4667   0.349E-02    0.562E-02
RMM:   4    -0.228823457011E+04    0.49374E-04   -0.21799E-04  3997   0.973E-03    0.373E-02
RMM:   5    -0.228823454259E+04    0.27528E-04   -0.94794E-05  3718   0.920E-03    0.839E-03
RMM:   6    -0.228823454079E+04    0.17927E-05   -0.12999E-05  2798   0.504E-03
  38 F= -.23080453E+04 E0= -.23080453E+04  d E =-.161585E-02  mag=     0.0000
       N       E                     dE             d eps       ncg     rms          rms(c)
DAV:   1    -0.228823408035E+04    0.46224E-03   -0.21419E-01  4352   0.431E-01    0.122E-01
RMM:   2    -0.228823499428E+04   -0.91393E-03   -0.10200E-02  5751   0.720E-02    0.589E-02
RMM:   3    -0.228823496140E+04    0.32884E-04   -0.64313E-04  4170   0.245E-02    0.409E-02
RMM:   4    -0.228823493468E+04    0.26718E-04   -0.10915E-04  3328   0.738E-03    0.270E-02
RMM:   5    -0.228823492009E+04    0.14589E-04   -0.51790E-05  3246   0.699E-03    0.592E-03
RMM:   6    -0.228823491922E+04    0.86681E-06   -0.84961E-06  2786   0.462E-03
  39 F= -.23080456E+04 E0= -.23080456E+04  d E =-.188527E-02  mag=    -0.0000
       N       E                     dE             d eps       ncg     rms          rms(c)
DAV:   1    -0.228823270012E+04    0.22200E-02   -0.50394E-01  4344   0.671E-01    0.186E-01
RMM:   2    -0.228823665999E+04   -0.39599E-02   -0.42550E-02  5958   0.117E-01    0.103E-01
RMM:   3    -0.228823661666E+04    0.43333E-04   -0.24451E-03  4852   0.385E-02    0.656E-02
RMM:   4    -0.228823656565E+04    0.51008E-04   -0.37852E-04  3823   0.971E-03    0.420E-02
RMM:   5    -0.228823653068E+04    0.34969E-04   -0.10285E-04  3560   0.871E-03    0.960E-03
RMM:   6    -0.228823652943E+04    0.12575E-05   -0.14211E-05  2796   0.508E-03
  40 F= -.23080472E+04 E0= -.23080472E+04  d E =-.163777E-02  mag=    -0.0000
       N       E                     dE             d eps       ncg     rms          rms(c)
DAV:   1    -0.228823353598E+04    0.29947E-02   -0.45578E-01  4344   0.638E-01    0.177E-01
RMM:   2    -0.228823714616E+04   -0.36102E-02   -0.38756E-02  5991   0.111E-01    0.104E-01
RMM:   3    -0.228823706595E+04    0.80214E-04   -0.16020E-03  4808   0.338E-02    0.708E-02
RMM:   4    -0.228823699496E+04    0.70989E-04   -0.28314E-04  3696   0.929E-03    0.404E-02
RMM:   5    -0.228823696454E+04    0.30418E-04   -0.97565E-05  3662   0.829E-03    0.828E-03
RMM:   6    -0.228823696361E+04    0.92620E-06   -0.12417E-05  2797   0.518E-03
  41 F= -.23080477E+04 E0= -.23080477E+04  d E =-.209564E-02  mag=     0.0000
       N       E                     dE             d eps       ncg     rms          rms(c)
DAV:   1    -0.228823660993E+04    0.35461E-03   -0.54302E-01  4328   0.695E-01    0.171E-01
RMM:   2    -0.228823863477E+04   -0.20248E-02   -0.22384E-02  5643   0.110E-01    0.868E-02
RMM:   3    -0.228823855390E+04    0.80870E-04   -0.13489E-03  4713   0.372E-02    0.606E-02
RMM:   4    -0.228823850001E+04    0.53889E-04   -0.22511E-04  4077   0.101E-02    0.399E-02
RMM:   5    -0.228823846969E+04    0.30329E-04   -0.11161E-04  3888   0.969E-03    0.845E-03
RMM:   6    -0.228823846792E+04    0.17665E-05   -0.13187E-05  2799   0.522E-03
  42 F= -.23080491E+04 E0= -.23080491E+04  d E =-.143454E-02  mag=    -0.0000
       N       E                     dE             d eps       ncg     rms          rms(c)
DAV:   1    -0.228823824185E+04    0.22784E-03   -0.11974E-01  4512   0.326E-01    0.805E-02
RMM:   2    -0.228823869475E+04   -0.45290E-03   -0.50081E-03  5681   0.524E-02    0.428E-02
RMM:   3    -0.228823867540E+04    0.19347E-04   -0.27328E-04  3608   0.164E-02    0.307E-02
RMM:   4    -0.228823866019E+04    0.15213E-04   -0.47237E-05  2867   0.559E-03    0.192E-02
RMM:   5    -0.228823865259E+04    0.75947E-05   -0.30178E-05  2932   0.526E-03
  43 F= -.23080493E+04 E0= -.23080493E+04  d E =-.158610E-02  mag=     0.0000
       N       E                     dE             d eps       ncg     rms          rms(c)
DAV:   1    -0.228823899550E+04   -0.33531E-03   -0.21680E-01  4344   0.451E-01    0.119E-01
RMM:   2    -0.228823972819E+04   -0.73269E-03   -0.82498E-03  5818   0.736E-02    0.546E-02
RMM:   3    -0.228823968817E+04    0.40023E-04   -0.47018E-04  4472   0.248E-02    0.404E-02
RMM:   4    -0.228823966334E+04    0.24835E-04   -0.81758E-05  3145   0.733E-03    0.259E-02
RMM:   5    -0.228823965010E+04    0.13235E-04   -0.52561E-05  3433   0.693E-03    0.556E-03
RMM:   6    -0.228823964950E+04    0.59821E-06   -0.74366E-06  2772   0.501E-03
  44 F= -.23080503E+04 E0= -.23080503E+04  d E =-.981176E-03  mag=     0.0000
       N       E                     dE             d eps       ncg     rms          rms(c)
DAV:   1    -0.228823948290E+04    0.16720E-03   -0.13356E-01  4340   0.354E-01    0.936E-02
RMM:   2    -0.228823994162E+04   -0.45872E-03   -0.51670E-03  5509   0.562E-02    0.431E-02
RMM:   3    -0.228823991284E+04    0.28780E-04   -0.29786E-04  3930   0.205E-02    0.317E-02
RMM:   4    -0.228823989736E+04    0.15482E-04   -0.55647E-05  2945   0.607E-03    0.207E-02
RMM:   5    -0.228823988794E+04    0.94205E-05   -0.32467E-05  2992   0.567E-03
  45 F= -.23080505E+04 E0= -.23080505E+04  d E =-.120706E-02  mag=     0.0000
       N       E                     dE             d eps       ncg     rms          rms(c)
DAV:   1    -0.228823906366E+04    0.83370E-03   -0.26148E-01  4344   0.502E-01    0.133E-01
RMM:   2    -0.228824081825E+04   -0.17546E-02   -0.18905E-02  6123   0.868E-02    0.711E-02
RMM:   3    -0.228824076702E+04    0.51232E-04   -0.81942E-04  4535   0.267E-02    0.507E-02
RMM:   4    -0.228824073312E+04    0.33908E-04   -0.14514E-04  3182   0.776E-03    0.305E-02
RMM:   5    -0.228824071465E+04    0.18468E-04   -0.59625E-05  3457   0.708E-03    0.637E-03
RMM:   6    -0.228824071383E+04    0.81999E-06   -0.82284E-06  2785   0.498E-03
  46 F= -.23080514E+04 E0= -.23080514E+04  d E =-.880362E-03  mag=    -0.0000
       N       E                     dE             d eps       ncg     rms          rms(c)
DAV:   1    -0.228824009120E+04    0.62344E-03   -0.11775E-01  4416   0.337E-01    0.895E-02
RMM:   2    -0.228824087732E+04   -0.78611E-03   -0.84796E-03  5907   0.567E-02    0.473E-02
RMM:   3    -0.228824085244E+04    0.24877E-04   -0.35744E-04  3668   0.183E-02    0.339E-02
RMM:   4    -0.228824083723E+04    0.15215E-04   -0.66202E-05  2841   0.576E-03    0.204E-02
RMM:   5    -0.228824082869E+04    0.85338E-05   -0.27589E-05  2845   0.509E-03
  47 F= -.23080515E+04 E0= -.23080515E+04  d E =-.103144E-02  mag=     0.0000
       N       E                     dE             d eps       ncg     rms          rms(c)
DAV:   1    -0.228824055847E+04    0.27876E-03   -0.27541E-01  4344   0.508E-01    0.125E-01
RMM:   2    -0.228824163841E+04   -0.10799E-02   -0.11836E-02  5997   0.836E-02    0.619E-02
RMM:   3    -0.228824158693E+04    0.51476E-04   -0.60889E-04  4568   0.251E-02    0.436E-02
RMM:   4    -0.228824156097E+04    0.25966E-04   -0.10427E-04  3219   0.779E-03    0.305E-02
RMM:   5    -0.228824154328E+04    0.17691E-04   -0.67977E-05  3622   0.751E-03    0.619E-03
RMM:   6    -0.228824154285E+04    0.42302E-06   -0.87775E-06  2780   0.526E-03
  48 F= -.23080521E+04 E0= -.23080521E+04  d E =-.621819E-03  mag=    -0.0000
       N       E                     dE             d eps       ncg     rms          rms(c)
DAV:   1    -0.228824149018E+04    0.53102E-04   -0.32658E-02  4560   0.175E-01    0.431E-02
RMM:   2    -0.228824161920E+04   -0.12902E-03   -0.14168E-03  5640   0.283E-02    0.214E-02
RMM:   3    -0.228824161248E+04    0.67216E-05   -0.74565E-05  3011   0.992E-03
  49 F= -.23080522E+04 E0= -.23080522E+04  d E =-.659585E-03  mag=     0.0000
       N       E                     dE             d eps       ncg     rms          rms(c)
DAV:   1    -0.228824145497E+04    0.16423E-03   -0.20691E-01  4344   0.442E-01    0.108E-01
RMM:   2    -0.228824232478E+04   -0.86981E-03   -0.95058E-03  5694   0.718E-02    0.526E-02
RMM:   3    -0.228824228921E+04    0.35568E-04   -0.51974E-04  4122   0.246E-02    0.345E-02
RMM:   4    -0.228824227758E+04    0.11635E-04   -0.10443E-04  3428   0.760E-03    0.274E-02
RMM:   5    -0.228824226519E+04    0.12388E-04   -0.48664E-05  2987   0.691E-03    0.727E-03
RMM:   6    -0.228824226456E+04    0.63280E-06   -0.82448E-06  2778   0.434E-03
  50 F= -.23080528E+04 E0= -.23080528E+04  d E =-.593592E-03  mag=     0.0000
       N       E                     dE             d eps       ncg     rms          rms(c)
DAV:   1    -0.228824209036E+04    0.17483E-03   -0.69921E-02  4368   0.257E-01    0.630E-02
RMM:   2    -0.228824239126E+04   -0.30090E-03   -0.32747E-03  5861   0.423E-02    0.311E-02
RMM:   3    -0.228824237892E+04    0.12339E-04   -0.17131E-04  3322   0.130E-02    0.218E-02
RMM:   4    -0.228824237267E+04    0.62501E-05   -0.30462E-05  2809   0.469E-03
  51 F= -.23080528E+04 E0= -.23080528E+04  d E =-.667690E-03  mag=     0.0000
       N       E                     dE             d eps       ncg     rms          rms(c)
DAV:   1    -0.228824152477E+04    0.85415E-03   -0.20605E-01  4344   0.445E-01    0.109E-01
RMM:   2    -0.228824288776E+04   -0.13630E-02   -0.14552E-02  5892   0.742E-02    0.568E-02
RMM:   3    -0.228824286386E+04    0.23905E-04   -0.84086E-04  4002   0.268E-02    0.376E-02
RMM:   4    -0.228824284981E+04    0.14043E-04   -0.13066E-04  3049   0.693E-03    0.258E-02
RMM:   5    -0.228824283691E+04    0.12898E-04   -0.43871E-05  3013   0.620E-03    0.627E-03
RMM:   6    -0.228824283676E+04    0.15259E-06   -0.72443E-06  2780   0.450E-03
  52 F= -.23080534E+04 E0= -.23080534E+04  d E =-.514877E-03  mag=    -0.0000
       N       E                     dE             d eps       ncg     rms          rms(c)
DAV:   1    -0.228824214783E+04    0.68909E-03   -0.11063E-01  4356   0.326E-01    0.799E-02
RMM:   2    -0.228824290272E+04   -0.75489E-03   -0.80371E-03  5890   0.552E-02    0.429E-02
RMM:   3    -0.228824288648E+04    0.16240E-04   -0.38298E-04  3610   0.187E-02    0.298E-02
RMM:   4    -0.228824287638E+04    0.10099E-04   -0.64159E-05  2853   0.538E-03    0.194E-02
RMM:   5    -0.228824286926E+04    0.71227E-05   -0.26428E-05  2858   0.486E-03
  53 F= -.23080534E+04 E0= -.23080534E+04  d E =-.584169E-03  mag=    -0.0000
       N       E                     dE             d eps       ncg     rms          rms(c)
DAV:   1    -0.228824243483E+04    0.44155E-03   -0.21249E-01  4344   0.451E-01    0.105E-01
RMM:   2    -0.228824339242E+04   -0.95759E-03   -0.10320E-02  6064   0.747E-02    0.510E-02
RMM:   3    -0.228824336469E+04    0.27729E-04   -0.54550E-04  4166   0.221E-02    0.357E-02
RMM:   4    -0.228824334912E+04    0.15570E-04   -0.87884E-05  3039   0.698E-03    0.258E-02
RMM:   5    -0.228824333691E+04    0.12211E-04   -0.52555E-05  3319   0.666E-03    0.594E-03
RMM:   6    -0.228824333654E+04    0.37203E-06   -0.68216E-06  2777   0.480E-03
  54 F= -.23080539E+04 E0= -.23080539E+04  d E =-.465322E-03  mag=     0.0000
       N       E                     dE             d eps       ncg     rms          rms(c)
DAV:   1    -0.228824305435E+04    0.28256E-03   -0.81574E-02  4368   0.280E-01    0.654E-02
RMM:   2    -0.228824342482E+04   -0.37047E-03   -0.39921E-03  5671   0.451E-02    0.317E-02
RMM:   3    -0.228824341218E+04    0.12637E-04   -0.21905E-04  3464   0.155E-02    0.222E-02
RMM:   4    -0.228824340616E+04    0.60184E-05   -0.36154E-05  2819   0.476E-03
  55 F= -.23080540E+04 E0= -.23080540E+04  d E =-.533566E-03  mag=     0.0000
       N       E                     dE             d eps       ncg     rms          rms(c)
DAV:   1    -0.228824352160E+04   -0.10942E-03   -0.10025E-01  4344   0.310E-01    0.762E-02
RMM:   2    -0.228824385221E+04   -0.33061E-03   -0.37063E-03  5528   0.488E-02    0.370E-02
RMM:   3    -0.228824382995E+04    0.22265E-04   -0.19962E-04  3818   0.180E-02    0.274E-02
RMM:   4    -0.228824381829E+04    0.11654E-04   -0.39662E-05  2818   0.536E-03    0.179E-02
RMM:   5    -0.228824381109E+04    0.72055E-05   -0.25675E-05  2913   0.498E-03
  56 F= -.23080543E+04 E0= -.23080543E+04  d E =-.355366E-03  mag=    -0.0000
       N       E                     dE             d eps       ncg     rms          rms(c)
DAV:   1    -0.228824378846E+04    0.29830E-04   -0.23926E-02  4528   0.152E-01    0.372E-02
RMM:   2    -0.228824387275E+04   -0.84290E-04   -0.93977E-04  5808   0.266E-02    0.178E-02
RMM:   3    -0.228824386593E+04    0.68197E-05   -0.43829E-05  2937   0.775E-03
  57 F= -.23080543E+04 E0= -.23080543E+04  d E =-.386001E-03  mag=    -0.0000
       N       E                     dE             d eps       ncg     rms          rms(c)
DAV:   1    -0.228824361546E+04    0.25729E-03   -0.10934E-01  4356   0.331E-01    0.874E-02
RMM:   2    -0.228824413255E+04   -0.51709E-03   -0.57151E-03  5852   0.543E-02    0.399E-02
RMM:   3    -0.228824412973E+04    0.28187E-05   -0.55572E-04  3629   0.190E-02    0.254E-02
RMM:   4    -0.228824412964E+04    0.89378E-07   -0.10269E-04  3129   0.673E-03    0.201E-02
RMM:   5    -0.228824412163E+04    0.80089E-05   -0.18668E-05  2794   0.478E-03
  58 F= -.23080546E+04 E0= -.23080546E+04  d E =-.272646E-03  mag=     0.0000
       N       E                     dE             d eps       ncg     rms          rms(c)
DAV:   1    -0.228824403379E+04    0.95847E-04   -0.17273E-02  4608   0.132E-01    0.348E-02
RMM:   2    -0.228824411909E+04   -0.85297E-04   -0.92818E-04  5702   0.223E-02    0.158E-02
RMM:   3    -0.228824411788E+04    0.12111E-05   -0.68670E-05  2877   0.804E-03
  59 F= -.23080546E+04 E0= -.23080546E+04  d E =-.275547E-03  mag=    -0.0000
       N       E                     dE             d eps       ncg     rms          rms(c)
DAV:   1    -0.228824401990E+04    0.99194E-04   -0.11597E-01  4344   0.340E-01    0.781E-02
RMM:   2    -0.228824443141E+04   -0.41152E-03   -0.45672E-03  5587   0.535E-02    0.381E-02
RMM:   3    -0.228824440196E+04    0.29450E-04   -0.19898E-04  3711   0.177E-02    0.253E-02
RMM:   4    -0.228824439604E+04    0.59217E-05   -0.52962E-05  2989   0.610E-03
  60 F= -.23080549E+04 E0= -.23080549E+04  d E =-.256929E-03  mag=     0.0000
       N       E                     dE             d eps       ncg     rms          rms(c)
DAV:   1    -0.228824432854E+04    0.73421E-04   -0.19883E-02  4560   0.141E-01    0.325E-02
RMM:   2    -0.228824439597E+04   -0.67429E-04   -0.76142E-04  5602   0.234E-02    0.162E-02
RMM:   3    -0.228824439368E+04    0.22877E-05   -0.58630E-05  2859   0.847E-03
  61 F= -.23080549E+04 E0= -.23080549E+04  d E =-.245545E-03  mag=    -0.0000
       N       E                     dE             d eps       ncg     rms          rms(c)
DAV:   1    -0.228824437071E+04    0.25260E-04   -0.12954E-01  4344   0.352E-01    0.801E-02
RMM:   2    -0.228824468637E+04   -0.31566E-03   -0.36449E-03  5371   0.537E-02    0.376E-02
RMM:   3    -0.228824465219E+04    0.34175E-04   -0.21172E-04  3982   0.192E-02    0.239E-02
RMM:   4    -0.228824464362E+04    0.85706E-05   -0.59809E-05  3516   0.671E-03
  62 F= -.23080551E+04 E0= -.23080551E+04  d E =-.188196E-03  mag=    -0.0000
       N       E                     dE             d eps       ncg     rms          rms(c)
DAV:   1    -0.228824464101E+04    0.11187E-04   -0.54487E-05  4544   0.851E-03    0.712E-03
RMM:   2    -0.228824464113E+04   -0.12685E-06   -0.79641E-06  2692   0.247E-03
  63 F= -.23080550E+04 E0= -.23080550E+04  d E =-.184484E-03  mag=    -0.0000
       N       E                     dE             d eps       ncg     rms          rms(c)
DAV:   1    -0.228824458159E+04    0.59421E-04   -0.73968E-02  4356   0.277E-01    0.758E-02
RMM:   2    -0.228824483200E+04   -0.25041E-03   -0.28532E-03  5395   0.440E-02    0.320E-02
RMM:   3    -0.228824481264E+04    0.19353E-04   -0.18312E-04  3761   0.182E-02    0.217E-02
RMM:   4    -0.228824480677E+04    0.58693E-05   -0.36420E-05  2835   0.531E-03
  64 F= -.23080552E+04 E0= -.23080552E+04  d E =-.189724E-03  mag=    -0.0000
       N       E                     dE             d eps       ncg     rms          rms(c)
DAV:   1    -0.228824478929E+04    0.23357E-04   -0.16683E-03  5264   0.417E-02    0.119E-02
RMM:   2    -0.228824479447E+04   -0.51857E-05   -0.66109E-05  3346   0.765E-03
  65 F= -.23080552E+04 E0= -.23080552E+04  d E =-.181219E-03  mag=    -0.0000
       N       E                     dE             d eps       ncg     rms          rms(c)
DAV:   1    -0.228824479780E+04   -0.85163E-05   -0.59656E-04  4352   0.251E-02    0.729E-03
RMM:   2    -0.228824479969E+04   -0.18843E-05   -0.22238E-05  2673   0.471E-03
  66 F= -.23080552E+04 E0= -.23080552E+04  d E =-.184296E-03  mag=    -0.0000
       N       E                     dE             d eps       ncg     rms          rms(c)
DAV:   1    -0.228824473244E+04    0.65361E-04   -0.43925E-02  4356   0.213E-01    0.556E-02
RMM:   2    -0.228824491939E+04   -0.18695E-03   -0.20713E-03  5800   0.349E-02    0.250E-02
RMM:   3    -0.228824491277E+04    0.66192E-05   -0.15391E-04  3356   0.136E-02    0.155E-02
RMM:   4    -0.228824490999E+04    0.27845E-05   -0.27017E-05  2804   0.446E-03
  67 F= -.23080554E+04 E0= -.23080554E+04  d E =-.126988E-03  mag=    -0.0000
       N       E                     dE             d eps       ncg     rms          rms(c)
DAV:   1    -0.228824490044E+04    0.12337E-04   -0.96339E-04  5184   0.320E-02    0.965E-03
RMM:   2    -0.228824490457E+04   -0.41350E-05   -0.50600E-05  3069   0.620E-03
  68 F= -.23080554E+04 E0= -.23080554E+04  d E =-.124132E-03  mag=    -0.0000
       N       E                     dE             d eps       ncg     rms          rms(c)
DAV:   1    -0.228824492082E+04   -0.20385E-04   -0.41729E-02  4356   0.207E-01    0.542E-02
RMM:   2    -0.228824504561E+04   -0.12478E-03   -0.14375E-03  5829   0.340E-02    0.236E-02
RMM:   3    -0.228824503268E+04    0.12924E-04   -0.87816E-05  3224   0.114E-02    0.154E-02
RMM:   4    -0.228824502998E+04    0.27009E-05   -0.20044E-05  2790   0.448E-03
  69 F= -.23080554E+04 E0= -.23080554E+04  d E =-.835914E-04  mag=    -0.0000
       N       E                     dE             d eps       ncg     rms          rms(c)
DAV:   1    -0.228824502757E+04    0.51120E-05   -0.17915E-04  5040   0.141E-02    0.483E-03
RMM:   2    -0.228824502800E+04   -0.42589E-06   -0.91533E-06  2534   0.312E-03
  70 F= -.23080554E+04 E0= -.23080554E+04  d E =-.785990E-04  mag=    -0.0000
       N       E                     dE             d eps       ncg     rms          rms(c)
DAV:   1    -0.228824502693E+04    0.64135E-06   -0.12371E-04  4368   0.113E-02    0.304E-03
RMM:   2    -0.228824502722E+04   -0.28791E-06   -0.37364E-06  2292   0.207E-03
  71 F= -.23080554E+04 E0= -.23080554E+04  d E =-.801189E-04  mag=    -0.0000
       N       E                     dE             d eps       ncg     rms          rms(c)
DAV:   1    -0.228824503764E+04   -0.10713E-04   -0.36771E-02  4344   0.195E-01    0.474E-02
RMM:   2    -0.228824515533E+04   -0.11769E-03   -0.13183E-03  5431   0.307E-02    0.211E-02
RMM:   3    -0.228824514708E+04    0.82516E-05   -0.82047E-05  3281   0.129E-02
  72 F= -.23080555E+04 E0= -.23080555E+04  d E =-.723476E-04  mag=    -0.0000
       N       E                     dE             d eps       ncg     rms          rms(c)
DAV:   1    -0.228824514626E+04    0.90723E-05   -0.79755E-05  4992   0.938E-03    0.115E-02
RMM:   2    -0.228824514782E+04   -0.15557E-05   -0.17314E-05  2606   0.278E-03
  73 F= -.23080555E+04 E0= -.23080555E+04  d E =-.707825E-04  mag=    -0.0000
       N       E                     dE             d eps       ncg     rms          rms(c)
DAV:   1    -0.228824509622E+04    0.50047E-04   -0.34613E-02  4356   0.191E-01    0.473E-02
RMM:   2    -0.228824524058E+04   -0.14436E-03   -0.15915E-03  5693   0.311E-02    0.217E-02
RMM:   3    -0.228824523653E+04    0.40485E-05   -0.12297E-04  3050   0.116E-02    0.133E-02
RMM:   4    -0.228824523400E+04    0.25316E-05   -0.23546E-05  2797   0.417E-03
  74 F= -.23080556E+04 E0= -.23080556E+04  d E =-.746279E-04  mag=    -0.0000
       N       E                     dE             d eps       ncg     rms          rms(c)
DAV:   1    -0.228824522850E+04    0.80313E-05   -0.18540E-03  4880   0.444E-02    0.118E-02
RMM:   2    -0.228824523637E+04   -0.78750E-05   -0.87479E-05  3474   0.829E-03
  75 F= -.23080556E+04 E0= -.23080556E+04  d E =-.742720E-04  mag=    -0.0000
       N       E                     dE             d eps       ncg     rms          rms(c)
DAV:   1    -0.228824523549E+04   -0.69931E-05   -0.37120E-02  4344   0.197E-01    0.478E-02
RMM:   2    -0.228824535980E+04   -0.12431E-03   -0.13851E-03  5857   0.333E-02    0.224E-02
RMM:   3    -0.228824535286E+04    0.69416E-05   -0.10160E-04  3146   0.111E-02    0.164E-02
RMM:   4    -0.228824534974E+04    0.31198E-05   -0.15989E-05  2788   0.410E-03
  76 F= -.23080557E+04 E0= -.23080557E+04  d E =-.888372E-04  mag=    -0.0000
       N       E                     dE             d eps       ncg     rms          rms(c)
DAV:   1    -0.228824532452E+04    0.28339E-04   -0.95930E-03  4368   0.100E-01    0.238E-02
RMM:   2    -0.228824535451E+04   -0.29987E-04   -0.33552E-04  5168   0.163E-02    0.103E-02
RMM:   3    -0.228824535362E+04    0.88310E-06   -0.26660E-05  2804   0.704E-03
  77 F= -.23080557E+04 E0= -.23080557E+04  d E =-.799984E-04  mag=    -0.0000
       N       E                     dE             d eps       ncg     rms          rms(c)
DAV:   1    -0.228824534953E+04    0.49751E-05   -0.18002E-03  4560   0.434E-02    0.114E-02
RMM:   2    -0.228824535587E+04   -0.63399E-05   -0.64466E-05  3331   0.760E-03
  78 F= -.23080557E+04 E0= -.23080557E+04  d E =-.875627E-04  mag=    -0.0000
       N       E                     dE             d eps       ncg     rms          rms(c)
DAV:   1    -0.228824537239E+04   -0.22860E-04   -0.33941E-02  4344   0.187E-01    0.399E-02
RMM:   2    -0.228824547694E+04   -0.10455E-03   -0.11449E-03  5809   0.309E-02    0.173E-02
RMM:   3    -0.228824546774E+04    0.92035E-05   -0.49438E-05  3024   0.903E-03
  79 F= -.23080557E+04 E0= -.23080557E+04  d E =-.695776E-04  mag=     0.0000
       N       E                     dE             d eps       ncg     rms          rms(c)
DAV:   1    -0.228824547175E+04    0.51872E-05   -0.14648E-03  5008   0.390E-02    0.102E-02
RMM:   2    -0.228824547633E+04   -0.45732E-05   -0.49813E-05  3171   0.677E-03
  80 F= -.23080557E+04 E0= -.23080557E+04  d E =-.689935E-04  mag=     0.0000
       N       E                     dE             d eps       ncg     rms          rms(c)
DAV:   1    -0.228824549522E+04   -0.23471E-04   -0.18045E-02  4356   0.138E-01    0.368E-02
RMM:   2    -0.228824555594E+04   -0.60721E-04   -0.69542E-04  5648   0.243E-02    0.163E-02
RMM:   3    -0.228824554907E+04    0.68769E-05   -0.37956E-05  2901   0.807E-03
  81 F= -.23080558E+04 E0= -.23080558E+04  d E =-.577118E-04  mag=     0.0000
       N       E                     dE             d eps       ncg     rms          rms(c)
DAV:   1    -0.228824554851E+04    0.74361E-05   -0.49961E-04  5200   0.232E-02    0.105E-02
RMM:   2    -0.228824555087E+04   -0.23569E-05   -0.26176E-05  2738   0.449E-03
  82 F= -.23080558E+04 E0= -.23080558E+04  d E =-.568902E-04  mag=    -0.0000
       N       E                     dE             d eps       ncg     rms          rms(c)
DAV:   1    -0.228824552572E+04    0.22788E-04   -0.17099E-02  4356   0.134E-01    0.309E-02
RMM:   2    -0.228824558900E+04   -0.63284E-04   -0.70019E-04  5635   0.227E-02    0.155E-02
RMM:   3    -0.228824558472E+04    0.42828E-05   -0.38938E-05  2853   0.809E-03
  83 F= -.23080558E+04 E0= -.23080558E+04  d E =-.319618E-04  mag=    -0.0000
       N       E                     dE             d eps       ncg     rms          rms(c)
DAV:   1    -0.228824558249E+04    0.65169E-05   -0.26299E-04  4960   0.168E-02    0.850E-03
RMM:   2    -0.228824558405E+04   -0.15650E-05   -0.17130E-05  2529   0.349E-03
  84 F= -.23080558E+04 E0= -.23080558E+04  d E =-.310496E-04  mag=     0.0000
       N       E                     dE             d eps       ncg     rms          rms(c)
DAV:   1    -0.228824558538E+04   -0.28940E-05   -0.16873E-02  4356   0.133E-01    0.319E-02
RMM:   2    -0.228824563491E+04   -0.49526E-04   -0.56731E-04  5487   0.217E-02    0.145E-02
RMM:   3    -0.228824562924E+04    0.56717E-05   -0.30448E-05  2855   0.833E-03
  85 F= -.23080559E+04 E0= -.23080559E+04  d E =-.449661E-04  mag=    -0.0000
       N       E                     dE             d eps       ncg     rms          rms(c)
DAV:   1    -0.228824561666E+04    0.18251E-04   -0.33022E-03  4592   0.590E-02    0.156E-02
RMM:   2    -0.228824562522E+04   -0.85612E-05   -0.10397E-04  3827   0.984E-03    0.976E-03
RMM:   3    -0.228824562435E+04    0.86846E-06   -0.12718E-05  2757   0.500E-03
  86 F= -.23080559E+04 E0= -.23080559E+04  d E =-.399752E-04  mag=    -0.0000
       N       E                     dE             d eps       ncg     rms          rms(c)
DAV:   1    -0.228824563142E+04   -0.62035E-05   -0.12848E-02  4356   0.116E-01    0.248E-02
RMM:   2    -0.228824566711E+04   -0.35684E-04   -0.40225E-04  5284   0.181E-02    0.128E-02
RMM:   3    -0.228824566410E+04    0.30032E-05   -0.26341E-05  2796   0.689E-03
  87 F= -.23080559E+04 E0= -.23080559E+04  d E =-.314422E-04  mag=    -0.0000
       N       E                     dE             d eps       ncg     rms          rms(c)
DAV:   1    -0.228824565786E+04    0.92408E-05   -0.49455E-03  4432   0.723E-02    0.169E-02
RMM:   2    -0.228824567053E+04   -0.12661E-04   -0.15215E-04  4453   0.116E-02    0.102E-02
RMM:   3    -0.228824566943E+04    0.10936E-05   -0.14718E-05  2758   0.532E-03
  88 F= -.23080559E+04 E0= -.23080559E+04  d E =-.315618E-04  mag=    -0.0000
       N       E                     dE             d eps       ncg     rms          rms(c)
DAV:   1    -0.228824568443E+04   -0.13904E-04   -0.11441E-02  4344   0.112E-01    0.298E-02
RMM:   2    -0.228824571986E+04   -0.35428E-04   -0.41444E-04  5244   0.181E-02    0.139E-02
RMM:   3    -0.228824571692E+04    0.29378E-05   -0.32351E-05  2787   0.737E-03
  89 F= -.23080559E+04 E0= -.23080559E+04  d E =-.436027E-04  mag=    -0.0000
       N       E                     dE             d eps       ncg     rms          rms(c)
DAV:   1    -0.228824571203E+04    0.78310E-05   -0.19547E-03  4672   0.464E-02    0.147E-02
RMM:   2    -0.228824571706E+04   -0.50295E-05   -0.70731E-05  3431   0.812E-03
  90 F= -.23080559E+04 E0= -.23080559E+04  d E =-.421041E-04  mag=    -0.0000
       N       E                     dE             d eps       ncg     rms          rms(c)
DAV:   1    -0.228824571634E+04   -0.43115E-05   -0.22245E-04  4976   0.161E-02    0.758E-03
RMM:   2    -0.228824571763E+04   -0.12907E-05   -0.11908E-05  2393   0.320E-03
  91 F= -.23080559E+04 E0= -.23080559E+04  d E =-.431878E-04  mag=    -0.0000
       N       E                     dE             d eps       ncg     rms          rms(c)
DAV:   1    -0.228824572855E+04   -0.12209E-04   -0.59396E-03  4368   0.813E-02    0.209E-02
RMM:   2    -0.228824575009E+04   -0.21544E-04   -0.24264E-04  4911   0.140E-02    0.885E-03
RMM:   3    -0.228824574939E+04    0.70145E-06   -0.20934E-05  2754   0.629E-03
  92 F= -.23080560E+04 E0= -.23080560E+04  d E =-.249994E-04  mag=    -0.0000
       N       E                     dE             d eps       ncg     rms          rms(c)
DAV:   1    -0.228824575028E+04   -0.19155E-06   -0.74135E-04  4784   0.288E-02    0.903E-03
RMM:   2    -0.228824575288E+04   -0.25969E-05   -0.32246E-05  2854   0.530E-03
  93 F= -.23080560E+04 E0= -.23080560E+04  d E =-.260485E-04  mag=    -0.0000
       N       E                     dE             d eps       ncg     rms          rms(c)
DAV:   1    -0.228824577184E+04   -0.21554E-04   -0.55770E-03  4368   0.793E-02    0.220E-02
RMM:   2    -0.228824578910E+04   -0.17260E-04   -0.20286E-04  4751   0.145E-02    0.970E-03
RMM:   3    -0.228824578799E+04    0.11069E-05   -0.15973E-05  2776   0.604E-03
  94 F= -.23080560E+04 E0= -.23080560E+04  d E =-.241644E-04  mag=    -0.0000
       N       E                     dE             d eps       ncg     rms          rms(c)
DAV:   1    -0.228824578912E+04   -0.24767E-07   -0.29005E-04  4992   0.182E-02    0.721E-03
RMM:   2    -0.228824579001E+04   -0.88623E-06   -0.12116E-05  2450   0.364E-03
  95 F= -.23080560E+04 E0= -.23080560E+04  d E =-.236172E-04  mag=    -0.0000
       N       E                     dE             d eps       ncg     rms          rms(c)
DAV:   1    -0.228824579742E+04   -0.83030E-05   -0.59628E-03  4368   0.820E-02    0.213E-02
RMM:   2    -0.228824581522E+04   -0.17799E-04   -0.21041E-04  4798   0.144E-02    0.992E-03
RMM:   3    -0.228824581360E+04    0.16214E-05   -0.16549E-05  2779   0.634E-03
  96 F= -.23080560E+04 E0= -.23080560E+04  d E =-.124230E-04  mag=    -0.0000
       N       E                     dE             d eps       ncg     rms          rms(c)
DAV:   1    -0.228824581322E+04    0.20047E-05   -0.24317E-05  4456   0.580E-03    0.592E-03
RMM:   2    -0.228824581364E+04   -0.42350E-06   -0.60859E-06  2286   0.267E-03
  97 F= -.23080560E+04 E0= -.23080560E+04  d E =-.129847E-04  mag=    -0.0000
       N       E                     dE             d eps       ncg     rms          rms(c)
DAV:   1    -0.228824581683E+04   -0.36071E-05   -0.48728E-03  4368   0.744E-02    0.174E-02
RMM:   2    -0.228824583218E+04   -0.15353E-04   -0.17323E-04  4726   0.122E-02    0.821E-03
RMM:   3    -0.228824583125E+04    0.92667E-06   -0.15022E-05  2700   0.630E-03
  98 F= -.23080560E+04 E0= -.23080560E+04  d E =-.128174E-04  mag=     0.0000
       N       E                     dE             d eps       ncg     rms          rms(c)
DAV:   1    -0.228824583098E+04    0.12019E-05   -0.14123E-05  3728   0.431E-03    0.490E-03
RMM:   2    -0.228824583148E+04   -0.50195E-06   -0.38673E-06  2232   0.245E-03
  99 F= -.23080560E+04 E0= -.23080560E+04  d E =-.132319E-04  mag=    -0.0000
       N       E                     dE             d eps       ncg     rms          rms(c)
DAV:   1    -0.228824583562E+04   -0.46433E-05   -0.45116E-03  4368   0.720E-02    0.183E-02
RMM:   2    -0.228824584889E+04   -0.13265E-04   -0.15567E-04  4586   0.117E-02    0.793E-03
RMM:   3    -0.228824584779E+04    0.10964E-05   -0.12278E-05  2737   0.621E-03
 100 F= -.23080560E+04 E0= -.23080560E+04  d E =-.127811E-04  mag=    -0.0000
       N       E                     dE             d eps       ncg     rms          rms(c)
DAV:   1    -0.228824584735E+04    0.15357E-05   -0.53215E-06  3680   0.311E-03    0.249E-03
RMM:   2    -0.228824584737E+04   -0.24695E-07   -0.15472E-06  2240   0.181E-03
 101 F= -.23080560E+04 E0= -.23080560E+04  d E =-.122342E-04  mag=    -0.0000
       N       E                     dE             d eps       ncg     rms          rms(c)
DAV:   1    -0.228824584730E+04    0.46944E-07   -0.38576E-06  2480   0.239E-03    0.102E-03
RMM:   2    -0.228824584733E+04   -0.26601E-07   -0.48522E-07  1834   0.131E-03
 102 F= -.23080560E+04 E0= -.23080560E+04  d E =-.122971E-04  mag=    -0.0000
       N       E                     dE             d eps       ncg     rms          rms(c)
DAV:   1    -0.228824586899E+04   -0.21688E-04   -0.34887E-03  4356   0.633E-02    0.149E-02
RMM:   2    -0.228824587928E+04   -0.10289E-04   -0.11677E-04  4456   0.984E-03    0.679E-03
RMM:   3    -0.228824587845E+04    0.82760E-06   -0.79380E-06  2518   0.506E-03
 103 F= -.23080560E+04 E0= -.23080560E+04  d E =-.162688E-04  mag=    -0.0000
       N       E                     dE             d eps       ncg     rms          rms(c)
DAV:   1    -0.228824588121E+04   -0.19286E-05   -0.24483E-04  4784   0.169E-02    0.555E-03
RMM:   2    -0.228824588195E+04   -0.74194E-06   -0.87996E-06  2345   0.309E-03
 104 F= -.23080560E+04 E0= -.23080560E+04  d E =-.157309E-04  mag=     0.0000
       N       E                     dE             d eps       ncg     rms          rms(c)
DAV:   1    -0.228824589791E+04   -0.16701E-04   -0.39248E-03  4344   0.670E-02    0.155E-02
RMM:   2    -0.228824590878E+04   -0.10866E-04   -0.12633E-04  4311   0.113E-02    0.746E-03
RMM:   3    -0.228824590803E+04    0.74340E-06   -0.10471E-05  2688   0.575E-03
 105 F= -.23080561E+04 E0= -.23080561E+04  d E =-.136615E-04  mag=    -0.0000
       N       E                     dE             d eps       ncg     rms          rms(c)
DAV:   1    -0.228824590898E+04   -0.20885E-06   -0.28796E-05  4688   0.593E-03    0.471E-03
RMM:   2    -0.228824590911E+04   -0.12560E-06   -0.34219E-06  2215   0.189E-03
 106 F= -.23080561E+04 E0= -.23080561E+04  d E =-.136303E-04  mag=    -0.0000
       N       E                     dE             d eps       ncg     rms          rms(c)
DAV:   1    -0.228824591478E+04   -0.57922E-05   -0.35856E-03  4368   0.639E-02    0.143E-02
RMM:   2    -0.228824592505E+04   -0.10271E-04   -0.11748E-04  4302   0.103E-02    0.706E-03
RMM:   3    -0.228824592428E+04    0.76668E-06   -0.91740E-06  2532   0.550E-03
 107 F= -.23080561E+04 E0= -.23080561E+04  d E =-.105172E-04  mag=    -0.0000
       N       E                     dE             d eps       ncg     rms          rms(c)
DAV:   1    -0.228824592444E+04    0.60575E-06   -0.21728E-05  4288   0.518E-03    0.446E-03
RMM:   2    -0.228824592497E+04   -0.52417E-06   -0.37172E-06  2206   0.203E-03
 108 F= -.23080561E+04 E0= -.23080561E+04  d E =-.108128E-04  mag=    -0.0000
       N       E                     dE             d eps       ncg     rms          rms(c)
DAV:   1    -0.228824592968E+04   -0.52401E-05   -0.32682E-03  4368   0.611E-02    0.140E-02
RMM:   2    -0.228824593988E+04   -0.10199E-04   -0.11578E-04  4202   0.996E-03    0.680E-03
RMM:   3    -0.228824593923E+04    0.65120E-06   -0.93004E-06  2496   0.525E-03
 109 F= -.23080561E+04 E0= -.23080561E+04  d E =-.868919E-05  mag=    -0.0000
       N       E                     dE             d eps       ncg     rms          rms(c)
DAV:   1    -0.228824593918E+04    0.70030E-06   -0.53726E-06  3584   0.282E-03    0.209E-03
RMM:   2    -0.228824593922E+04   -0.35099E-07   -0.11502E-06  2183   0.165E-03
 110 F= -.23080561E+04 E0= -.23080561E+04  d E =-.842449E-05  mag=    -0.0000
       N       E                     dE             d eps       ncg     rms          rms(c)
DAV:   1    -0.228824593905E+04    0.13251E-06   -0.40010E-06  2384   0.230E-03    0.875E-04
RMM:   2    -0.228824593908E+04   -0.31199E-07   -0.37746E-07  1802   0.115E-03
 111 F= -.23080561E+04 E0= -.23080561E+04  d E =-.849243E-05  mag=    -0.0000
       N       E                     dE             d eps       ncg     rms          rms(c)
DAV:   1    -0.228824595462E+04   -0.15568E-04   -0.26532E-03  4344   0.551E-02    0.125E-02
RMM:   2    -0.228824596316E+04   -0.85433E-05   -0.95862E-05  4004   0.861E-03
 112 F= -.23080561E+04 E0= -.23080561E+04  d E =-.129848E-04  mag=    -0.0000
       N       E                     dE             d eps       ncg     rms          rms(c)
DAV:   1    -0.228824596368E+04   -0.90594E-05   -0.23518E-05  4064   0.669E-03    0.423E-03
RMM:   2    -0.228824596363E+04    0.44412E-07   -0.29356E-06  2218   0.234E-03
 113 F= -.23080561E+04 E0= -.23080561E+04  d E =-.125191E-04  mag=    -0.0000
       N       E                     dE             d eps       ncg     rms          rms(c)
DAV:   1    -0.228824598005E+04   -0.16373E-04   -0.21058E-03  4368   0.491E-02    0.116E-02
RMM:   2    -0.228824598639E+04   -0.63377E-05   -0.74650E-05  3525   0.826E-03
 114 F= -.23080561E+04 E0= -.23080561E+04  d E =-.824313E-05  mag=    -0.0000
       N       E                     dE             d eps       ncg     rms          rms(c)
DAV:   1    -0.228824598602E+04   -0.59736E-05   -0.10715E-05  3472   0.565E-03    0.451E-03
RMM:   2    -0.228824598589E+04    0.12842E-06   -0.25054E-06  2129   0.173E-03
 115 F= -.23080561E+04 E0= -.23080561E+04  d E =-.808018E-05  mag=     0.0000
       N       E                     dE             d eps       ncg     rms          rms(c)
DAV:   1    -0.228824598612E+04   -0.98211E-07   -0.13487E-06  2288   0.171E-03    0.178E-03
RMM:   2    -0.228824598608E+04    0.42492E-07   -0.19506E-07  1083   0.644E-04
 116 F= -.23080561E+04 E0= -.23080561E+04  d E =-.796826E-05  mag=     0.0000
       N       E                     dE             d eps       ncg     rms          rms(c)
DAV:   1    -0.228824599521E+04   -0.90898E-05   -0.15161E-03  4308   0.416E-02    0.104E-02
RMM:   2    -0.228824599959E+04   -0.43829E-05   -0.51528E-05  3239   0.671E-03
 117 F= -.23080561E+04 E0= -.23080561E+04  d E =-.618148E-05  mag=     0.0000
       N       E                     dE             d eps       ncg     rms          rms(c)
DAV:   1    -0.228824599804E+04   -0.28311E-05   -0.71230E-05  4272   0.951E-03    0.359E-03
RMM:   2    -0.228824599817E+04   -0.12870E-06   -0.29486E-06  2194   0.181E-03
 118 F= -.23080561E+04 E0= -.23080561E+04  d E =-.625143E-05  mag=     0.0000
       N       E                     dE             d eps       ncg     rms          rms(c)
DAV:   1    -0.228824600483E+04   -0.67867E-05   -0.99289E-04  4256   0.337E-02    0.832E-03
RMM:   2    -0.228824600745E+04   -0.26229E-05   -0.31343E-05  2754   0.585E-03
 119 F= -.23080561E+04 E0= -.23080561E+04  d E =-.541884E-05  mag=     0.0000
       N       E                     dE             d eps       ncg     rms          rms(c)
DAV:   1    -0.228824600690E+04   -0.20731E-05   -0.33143E-05  4024   0.700E-03    0.336E-03
RMM:   2    -0.228824600695E+04   -0.48472E-07   -0.20569E-06  2146   0.152E-03
 120 F= -.23080561E+04 E0= -.23080561E+04  d E =-.555697E-05  mag=     0.0000
       N       E                     dE             d eps       ncg     rms          rms(c)
DAV:   1    -0.228824600718E+04   -0.27772E-06   -0.73535E-06  2272   0.309E-03    0.118E-03
RMM:   2    -0.228824600720E+04   -0.22381E-07   -0.59543E-07  1860   0.135E-03
 121 F= -.23080561E+04 E0= -.23080561E+04  d E =-.545700E-05  mag=     0.0000
       N       E                     dE             d eps       ncg     rms          rms(c)
DAV:   1    -0.228824601023E+04   -0.30537E-05   -0.58391E-04  4144   0.258E-02    0.596E-03
RMM:   2    -0.228824601186E+04   -0.16241E-05   -0.19014E-05  2332   0.430E-03
 122 F= -.23080561E+04 E0= -.23080561E+04  d E =-.367487E-05  mag=     0.0000
       N       E                     dE             d eps       ncg     rms          rms(c)
DAV:   1    -0.228824601173E+04   -0.14963E-05   -0.19724E-05  2944   0.530E-03    0.221E-03
RMM:   2    -0.228824601180E+04   -0.74142E-07   -0.16705E-06  2054   0.210E-03
 123 F= -.23080561E+04 E0= -.23080561E+04  d E =-.379548E-05  mag=     0.0000
       N       E                     dE             d eps       ncg     rms          rms(c)
DAV:   1    -0.228824601726E+04   -0.55350E-05   -0.33195E-04  4064   0.194E-02    0.434E-03
RMM:   2    -0.228824601815E+04   -0.88259E-06   -0.10397E-05  2236   0.352E-03
 124 F= -.23080561E+04 E0= -.23080561E+04  d E =-.406444E-05  mag=     0.0000
       N       E                     dE             d eps       ncg     rms          rms(c)
DAV:   1    -0.228824602005E+04   -0.27901E-05   -0.66395E-05  4256   0.915E-03    0.288E-03
RMM:   2    -0.228824602024E+04   -0.18392E-06   -0.32846E-06  2191   0.202E-03
 125 F= -.23080561E+04 E0= -.23080561E+04  d E =-.516888E-05  mag=     0.0000
       N       E                     dE             d eps       ncg     rms          rms(c)
DAV:   1    -0.228824602230E+04   -0.22420E-05   -0.26254E-04  4064   0.175E-02    0.432E-03
RMM:   2    -0.228824602293E+04   -0.63831E-06   -0.86464E-06  2213   0.356E-03
 126 F= -.23080561E+04 E0= -.23080561E+04  d E =-.588946E-05  mag=     0.0000
       N       E                     dE             d eps       ncg     rms          rms(c)
DAV:   1    -0.228824602629E+04   -0.39959E-05   -0.46276E-04  4192   0.231E-02    0.506E-03
RMM:   2    -0.228824602757E+04   -0.12822E-05   -0.15920E-05  2351   0.475E-03
 127 F= -.23080561E+04 E0= -.23080561E+04  d E =-.185313E-05  mag=     0.0000
       N       E                     dE             d eps       ncg     rms          rms(c)
DAV:   1    -0.228824602712E+04   -0.82380E-06   -0.82539E-06  2680   0.416E-03    0.260E-03
RMM:   2    -0.228824602714E+04   -0.24200E-07   -0.16429E-06  2060   0.214E-03
 128 F= -.23080561E+04 E0= -.23080561E+04  d E =-.173831E-05  mag=     0.0000
       N       E                     dE             d eps       ncg     rms          rms(c)
DAV:   1    -0.228824602754E+04   -0.42787E-06   -0.17058E-06  2256   0.176E-03    0.102E-03
RMM:   2    -0.228824602755E+04   -0.21100E-08   -0.26436E-07  1594   0.837E-04
 129 F= -.23080561E+04 E0= -.23080561E+04  d E =-.192729E-05  mag=     0.0000
       N       E                     dE             d eps       ncg     rms          rms(c)
DAV:   1    -0.228824603414E+04   -0.65986E-05   -0.33597E-04  4072   0.194E-02    0.431E-03
RMM:   2    -0.228824603504E+04   -0.90283E-06   -0.10779E-05  2225   0.337E-03
 130 F= -.23080561E+04 E0= -.23080561E+04  d E =-.474502E-05  mag=     0.0000
       N       E                     dE             d eps       ncg     rms          rms(c)
DAV:   1    -0.228824603705E+04   -0.29131E-05   -0.51762E-05  4112   0.798E-03    0.256E-03
RMM:   2    -0.228824603717E+04   -0.11933E-06   -0.25002E-06  2165   0.175E-03
 131 F= -.23080561E+04 E0= -.23080561E+04  d E =-.578101E-05  mag=     0.0000
       N       E                     dE             d eps       ncg     rms          rms(c)
DAV:   1    -0.228824604164E+04   -0.45812E-05   -0.22384E-04  4048   0.160E-02    0.442E-03
RMM:   2    -0.228824604223E+04   -0.59017E-06   -0.80940E-06  2207   0.338E-03
 132 F= -.23080561E+04 E0= -.23080561E+04  d E =-.333354E-05  mag=     0.0000
       N       E                     dE             d eps       ncg     rms          rms(c)
DAV:   1    -0.228824604211E+04   -0.46955E-06   -0.38129E-06  2248   0.295E-03    0.195E-03
RMM:   2    -0.228824604210E+04    0.95315E-08   -0.76677E-07  1956   0.144E-03
 133 F= -.23080561E+04 E0= -.23080561E+04  d E =-.338518E-05  mag=     0.0000
       N       E                     dE             d eps       ncg     rms          rms(c)
DAV:   1    -0.228824604485E+04   -0.27405E-05   -0.15767E-04  4064   0.134E-02    0.330E-03
RMM:   2    -0.228824604528E+04   -0.43870E-06   -0.53251E-06  2200   0.263E-03
 134 F= -.23080561E+04 E0= -.23080561E+04  d E =-.192652E-05  mag=     0.0000
       N       E                     dE             d eps       ncg     rms          rms(c)
DAV:   1    -0.228824604541E+04   -0.56275E-06   -0.10873E-06  2208   0.193E-03    0.139E-03
RMM:   2    -0.228824604538E+04    0.26310E-07   -0.26518E-07  1400   0.772E-04
 135 F= -.23080561E+04 E0= -.23080561E+04  d E =-.196604E-05  mag=     0.0000
       N       E                     dE             d eps       ncg     rms          rms(c)
DAV:   1    -0.228824604871E+04   -0.32985E-05   -0.78286E-05  4096   0.942E-03    0.226E-03
RMM:   2    -0.228824604890E+04   -0.19364E-06   -0.26014E-06  2182   0.188E-03
 136 F= -.23080561E+04 E0= -.23080561E+04  d E =-.197509E-05  mag=     0.0000
       N       E                     dE             d eps       ncg     rms          rms(c)
DAV:   1    -0.228824604909E+04   -0.38398E-06   -0.92638E-07  2208   0.162E-03    0.938E-04
RMM:   2    -0.228824604908E+04    0.88767E-08   -0.20435E-07  1473   0.790E-04
 137 F= -.23080561E+04 E0= -.23080561E+04  d E =-.200798E-05  mag=     0.0000
       N       E                     dE             d eps       ncg     rms          rms(c)
DAV:   1    -0.228824605294E+04   -0.38531E-05   -0.59114E-05  4000   0.816E-03    0.203E-03
RMM:   2    -0.228824605308E+04   -0.13996E-06   -0.19711E-06  2162   0.163E-03
 138 F= -.23080561E+04 E0= -.23080561E+04  d E =-.146477E-05  mag=     0.0000
       N       E                     dE             d eps       ncg     rms          rms(c)
DAV:   1    -0.228824605418E+04   -0.12317E-05   -0.73019E-06  2280   0.322E-03    0.115E-03
RMM:   2    -0.228824605422E+04   -0.48531E-07   -0.87573E-07  2078   0.174E-03
 139 F= -.23080561E+04 E0= -.23080561E+04  d E =-.166320E-05  mag=    -0.0000
       N       E                     dE             d eps       ncg     rms          rms(c)
DAV:   1    -0.228824605639E+04   -0.22146E-05   -0.63246E-05  4000   0.845E-03    0.217E-03
RMM:   2    -0.228824605656E+04   -0.16713E-06   -0.22906E-06  2175   0.176E-03
 140 F= -.23080561E+04 E0= -.23080561E+04  d E =-.126550E-05  mag=     0.0000
       N       E                     dE             d eps       ncg     rms          rms(c)
DAV:   1    -0.228824605660E+04   -0.21032E-06   -0.43981E-07  2192   0.129E-03    0.946E-04
RMM:   2    -0.228824605658E+04    0.25117E-07   -0.56763E-08   724   0.438E-04
 141 F= -.23080561E+04 E0= -.23080561E+04  d E =-.127177E-05  mag=     0.0000
       N       E                     dE             d eps       ncg     rms          rms(c)
DAV:   1    -0.228824605713E+04   -0.53014E-06   -0.35957E-05  3568   0.633E-03    0.152E-03
RMM:   2    -0.228824605724E+04   -0.10531E-06   -0.13130E-06  2106   0.128E-03
 142 F= -.23080561E+04 E0= -.23080561E+04  d E =-.123915E-05  mag=     0.0000
       N       E                     dE             d eps       ncg     rms          rms(c)
DAV:   1    -0.228824605713E+04    0.39872E-08   -0.58763E-06  2256   0.281E-03    0.931E-04
RMM:   2    -0.228824605716E+04   -0.37675E-07   -0.61860E-07  2029   0.138E-03
 143 F= -.23080561E+04 E0= -.23080561E+04  d E =-.140726E-05  mag=     0.0000
       N       E                     dE             d eps       ncg     rms          rms(c)
DAV:   1    -0.228824605731E+04   -0.17998E-06   -0.38049E-05  3680   0.654E-03    0.153E-03
RMM:   2    -0.228824605741E+04   -0.10525E-06   -0.14136E-06  2143   0.139E-03
 144 F= -.23080561E+04 E0= -.23080561E+04  d E =-.120581E-05  mag=     0.0000
       N       E                     dE             d eps       ncg     rms          rms(c)
DAV:   1    -0.228824605718E+04    0.13098E-06   -0.96286E-06  2304   0.355E-03    0.107E-03
RMM:   2    -0.228824605724E+04   -0.68190E-07   -0.94942E-07  2077   0.170E-03
 145 F= -.23080561E+04 E0= -.23080561E+04  d E =-.154425E-05  mag=    -0.0000
       N       E                     dE             d eps       ncg     rms          rms(c)
DAV:   1    -0.228824605621E+04    0.96372E-06   -0.42821E-05  3920   0.696E-03    0.174E-03
RMM:   2    -0.228824605633E+04   -0.12030E-06   -0.16428E-06  2149   0.151E-03
 146 F= -.23080561E+04 E0= -.23080561E+04  d E =-.164494E-05  mag=    -0.0000
       N       E                     dE             d eps       ncg     rms          rms(c)
DAV:   1    -0.228824605784E+04   -0.16261E-05   -0.62571E-05  4000   0.834E-03    0.183E-03
RMM:   2    -0.228824605803E+04   -0.19015E-06   -0.24679E-06  2167   0.186E-03
 147 F= -.23080561E+04 E0= -.23080561E+04  d E =-.141974E-05  mag=    -0.0000
       N       E                     dE             d eps       ncg     rms          rms(c)
DAV:   1    -0.228824605856E+04   -0.71923E-06   -0.21092E-05  2816   0.508E-03    0.141E-03
RMM:   2    -0.228824605865E+04   -0.95388E-07   -0.13657E-06  2081   0.186E-03
 148 F= -.23080561E+04 E0= -.23080561E+04  d E =-.188521E-05  mag=    -0.0000
       N       E                     dE             d eps       ncg     rms          rms(c)
DAV:   1    -0.228824606214E+04   -0.35834E-05   -0.50560E-05  3984   0.756E-03    0.188E-03
RMM:   2    -0.228824606231E+04   -0.16668E-06   -0.22752E-06  2163   0.172E-03
 149 F= -.23080561E+04 E0= -.23080561E+04  d E =-.170421E-05  mag=     0.0000
