       N       E                     dE             d eps       ncg     rms          rms(c)
DAV:   1     0.131062619554E+05    0.13106E+05   -0.84433E+05  4544   0.144E+03
DAV:   2    -0.101491574097E+04   -0.14121E+05   -0.13494E+05  4928   0.331E+02
DAV:   3    -0.249084516131E+04   -0.14759E+04   -0.14576E+04  5560   0.115E+02
DAV:   4    -0.253632294106E+04   -0.45478E+02   -0.45229E+02  6728   0.288E+01
DAV:   5    -0.253716484587E+04   -0.84190E+00   -0.84010E+00  6280   0.344E+00    0.171E+02
RMM:   6    -0.150186708947E+04    0.10353E+04   -0.19782E+03  4482   0.385E+01    0.732E+01
RMM:   7    -0.167318615254E+04   -0.17132E+03   -0.29562E+02  5153   0.145E+01    0.549E+01
RMM:   8    -0.172301214559E+04   -0.49826E+02   -0.85649E+01  5304   0.837E+00    0.476E+01
RMM:   9    -0.177907398892E+04   -0.56062E+02   -0.61097E+01  5050   0.727E+00    0.396E+01
RMM:  10    -0.187896138321E+04   -0.99887E+02   -0.55695E+01  5171   0.749E+00    0.366E+01
RMM:  11    -0.196583678448E+04   -0.86875E+02   -0.45578E+01  5268   0.623E+00    0.231E+01
RMM:  12    -0.206366799779E+04   -0.97831E+02   -0.43179E+01  4823   0.528E+00    0.173E+01
RMM:  13    -0.212155757326E+04   -0.57890E+02   -0.23473E+01  4864   0.364E+00    0.132E+01
RMM:  14    -0.226442516173E+04   -0.14287E+03   -0.13725E+02  4468   0.814E+00    0.108E+01
RMM:  15    -0.230347649277E+04   -0.39051E+02   -0.34892E+01  4530   0.474E+00    0.938E+00
RMM:  16    -0.231673219691E+04   -0.13256E+02   -0.13374E+01  4899   0.266E+00    0.714E+00
RMM:  17    -0.232507975971E+04   -0.83476E+01   -0.67436E+00  4851   0.179E+00    0.383E+00
RMM:  18    -0.232838846587E+04   -0.33087E+01   -0.21037E+00  4872   0.122E+00    0.204E+00
RMM:  19    -0.232997760385E+04   -0.15891E+01   -0.78251E-01  5019   0.595E-01    0.131E+00
RMM:  20    -0.233045147819E+04   -0.47387E+00   -0.27101E-01  4834   0.408E-01    0.864E-01
RMM:  21    -0.233060000163E+04   -0.14852E+00   -0.98728E-02  4734   0.236E-01    0.895E-01
RMM:  22    -0.233061893212E+04   -0.18930E-01   -0.18845E-02  5203   0.113E-01    0.143E+00
RMM:  23    -0.233063519041E+04   -0.16258E-01   -0.13926E-02  4596   0.815E-02    0.667E-01
RMM:  24    -0.233067036236E+04   -0.35172E-01   -0.13962E-02  4468   0.969E-02    0.481E-01
RMM:  25    -0.233069210140E+04   -0.21739E-01   -0.98839E-03  4516   0.814E-02    0.562E-01
RMM:  26    -0.233069873026E+04   -0.66289E-02   -0.69971E-03  4647   0.606E-02    0.833E-01
RMM:  27    -0.233069868150E+04    0.48758E-04   -0.62307E-04  4372   0.236E-02    0.834E-01
RMM:  28    -0.233069748560E+04    0.11959E-02   -0.37219E-04  4222   0.104E-02    0.907E-01
RMM:  29    -0.233070457797E+04   -0.70924E-02   -0.25931E-03  4606   0.304E-02    0.692E-01
RMM:  30    -0.233071389192E+04   -0.93139E-02   -0.61580E-03  4949   0.503E-02    0.627E-01
RMM:  31    -0.233072835104E+04   -0.14459E-01   -0.13326E-02  4874   0.657E-02    0.131E+00
RMM:  32    -0.233072537280E+04    0.29782E-02   -0.82592E-04  4629   0.332E-02    0.107E+00
RMM:  33    -0.233072508903E+04    0.28377E-03   -0.24726E-04  4208   0.111E-02    0.997E-01
RMM:  34    -0.233072018908E+04    0.49000E-02   -0.19063E-02  4616   0.803E-02    0.735E-01
RMM:  35    -0.233070959338E+04    0.10596E-01   -0.11337E-02  4926   0.712E-02    0.123E+00
RMM:  36    -0.233070265686E+04    0.69365E-02   -0.32091E-03  5490   0.328E-02    0.144E+00
RMM:  37    -0.233071072160E+04   -0.80647E-02   -0.88339E-04  4859   0.159E-02    0.119E+00
RMM:  38    -0.233072452826E+04   -0.13807E-01   -0.73362E-03  4785   0.435E-02    0.673E-01
RMM:  39    -0.233073006895E+04   -0.55407E-02   -0.42420E-03  5504   0.428E-02    0.546E-01
RMM:  40    -0.233073273501E+04   -0.26661E-02   -0.10926E-03  4613   0.196E-02    0.539E-01
RMM:  41    -0.233073548840E+04   -0.27534E-02   -0.83386E-04  4086   0.155E-02    0.617E-01
RMM:  42    -0.233073836503E+04   -0.28766E-02   -0.70400E-04  4132   0.133E-02    0.802E-01
RMM:  43    -0.233073789467E+04    0.47036E-03   -0.51645E-05  2926   0.610E-03    0.783E-01
RMM:  44    -0.233073682114E+04    0.10735E-02   -0.70406E-05  2972   0.452E-03    0.713E-01
RMM:  45    -0.233073205445E+04    0.47667E-02   -0.25693E-03  4356   0.209E-02    0.524E-01
RMM:  46    -0.233072723726E+04    0.48172E-02   -0.32388E-03  4366   0.257E-02    0.692E-01
RMM:  47    -0.233072733445E+04   -0.97186E-04   -0.23618E-04  3145   0.831E-03    0.685E-01
RMM:  48    -0.233072731411E+04    0.20340E-04   -0.33032E-05  2896   0.334E-03    0.685E-01
RMM:  49    -0.233072756052E+04   -0.24641E-03   -0.54967E-06  2623   0.221E-03    0.673E-01
RMM:  50    -0.233072968361E+04   -0.21231E-02   -0.38924E-04  3526   0.861E-03    0.572E-01
RMM:  51    -0.233073306757E+04   -0.33840E-02   -0.16044E-03  4285   0.176E-02    0.485E-01
RMM:  52    -0.233073700371E+04   -0.39361E-02   -0.22289E-03  4393   0.208E-02    0.628E-01
RMM:  53    -0.233073515265E+04    0.18511E-02   -0.24719E-04  3240   0.906E-03    0.547E-01
RMM:  54    -0.233073147379E+04    0.36789E-02   -0.19256E-03  4405   0.187E-02    0.513E-01
RMM:  55    -0.233072788599E+04    0.35878E-02   -0.17904E-03  4268   0.203E-02    0.668E-01
RMM:  56    -0.233072342794E+04    0.44581E-02   -0.17822E-03  4661   0.186E-02    0.898E-01
RMM:  57    -0.233072315718E+04    0.27076E-03   -0.11907E-04  3087   0.620E-03    0.911E-01
RMM:  58    -0.233072320042E+04   -0.43243E-04   -0.11861E-05  2830   0.252E-03    0.909E-01
RMM:  59    -0.233072348305E+04   -0.28262E-03   -0.37000E-06  2594   0.194E-03    0.896E-01
RMM:  60    -0.233072647127E+04   -0.29882E-02   -0.42515E-04  3624   0.897E-03    0.746E-01
RMM:  61    -0.233073189978E+04   -0.54285E-02   -0.29882E-03  4586   0.240E-02    0.490E-01
RMM:  62    -0.233073396572E+04   -0.20659E-02   -0.12133E-03  4166   0.166E-02    0.477E-01
RMM:  63    -0.233073584955E+04   -0.18838E-02   -0.70498E-04  4348   0.117E-02    0.545E-01
RMM:  64    -0.233073774180E+04   -0.18922E-02   -0.41403E-04  3722   0.105E-02    0.662E-01
RMM:  65    -0.233073864479E+04   -0.90300E-03   -0.12225E-04  3100   0.611E-03    0.733E-01
RMM:  66    -0.233073888251E+04   -0.23771E-03   -0.21061E-05  2908   0.389E-03    0.757E-01
RMM:  67    -0.233073888439E+04   -0.18808E-05   -0.37062E-06  2661   0.210E-03
   1 F= -.23522378E+04 E0= -.23522269E+04  d E =-.235224E+04  mag=     3.8427
       N       E                     dE             d eps       ncg     rms          rms(c)
DAV:   1    -0.233072297839E+04    0.15904E-01   -0.96570E+00  4744   0.222E+00    0.133E+00
RMM:   2    -0.233093225675E+04   -0.20928E+00   -0.17984E+00  6583   0.640E-01    0.262E+00
RMM:   3    -0.233093394694E+04   -0.16902E-02   -0.19901E-01  6038   0.229E-01    0.232E+00
RMM:   4    -0.233093000725E+04    0.39397E-02   -0.48979E-02  5913   0.949E-02    0.250E+00
RMM:   5    -0.233090767598E+04    0.22331E-01   -0.26771E-02  5427   0.735E-02    0.135E+00
RMM:   6    -0.233089454031E+04    0.13136E-01   -0.20484E-02  5761   0.623E-02    0.104E+00
RMM:   7    -0.233088698623E+04    0.75541E-02   -0.14885E-02  5961   0.533E-02    0.128E+00
RMM:   8    -0.233086734459E+04    0.19642E-01   -0.96467E-03  4908   0.419E-02    0.167E+00
RMM:   9    -0.233085228689E+04    0.15058E-01   -0.33073E-03  4542   0.293E-02    0.198E+00
RMM:  10    -0.233087125286E+04   -0.18966E-01   -0.38494E-03  4395   0.300E-02    0.152E+00
RMM:  11    -0.233089331388E+04   -0.22061E-01   -0.25001E-02  4662   0.790E-02    0.733E-01
RMM:  12    -0.233089762886E+04   -0.43150E-02   -0.67927E-03  4602   0.392E-02    0.712E-01
RMM:  13    -0.233090643006E+04   -0.88012E-02   -0.55305E-03  4579   0.309E-02    0.967E-01
RMM:  14    -0.233091457146E+04   -0.81414E-02   -0.33987E-03  4236   0.284E-02    0.135E+00
RMM:  15    -0.233091776874E+04   -0.31973E-02   -0.83617E-04  4160   0.144E-02    0.154E+00
RMM:  16    -0.233091422789E+04    0.35408E-02   -0.71399E-04  3947   0.132E-02    0.132E+00
RMM:  17    -0.233091295774E+04    0.12702E-02   -0.75649E-04  3830   0.120E-02    0.119E+00
RMM:  18    -0.233091214180E+04    0.81594E-03   -0.13165E-04  3065   0.675E-03    0.113E+00
RMM:  19    -0.233090508944E+04    0.70524E-02   -0.35822E-03  4029   0.224E-02    0.900E-01
RMM:  20    -0.233089737160E+04    0.77178E-02   -0.20194E-02  4377   0.480E-02    0.740E-01
RMM:  21    -0.233089574487E+04    0.16267E-02   -0.26504E-03  3907   0.275E-02    0.705E-01
RMM:  22    -0.233089631112E+04   -0.56625E-03   -0.62137E-04  3671   0.118E-02    0.723E-01
RMM:  23    -0.233089610726E+04    0.20386E-03   -0.13282E-02  4553   0.435E-02    0.831E-01
RMM:  24    -0.233089433161E+04    0.17757E-02   -0.14976E-02  4657   0.487E-02    0.103E+00
RMM:  25    -0.233089403315E+04    0.29845E-03   -0.89172E-03  4469   0.369E-02    0.860E-01
RMM:  26    -0.233089365856E+04    0.37459E-03   -0.53226E-04  3392   0.146E-02    0.864E-01
RMM:  27    -0.233089203659E+04    0.16220E-02   -0.14960E-02  4550   0.451E-02    0.726E-01
RMM:  28    -0.233086355138E+04    0.28485E-01   -0.11270E-01  4894   0.128E-01    0.923E-01
RMM:  29    -0.233087300566E+04   -0.94543E-02   -0.44986E-03  4311   0.484E-02    0.781E-01
RMM:  30    -0.233087328184E+04   -0.27618E-03   -0.59538E-04  3821   0.910E-03    0.770E-01
RMM:  31    -0.233087540568E+04   -0.21238E-02   -0.20298E-04  3032   0.712E-03    0.745E-01
RMM:  32    -0.233087564575E+04   -0.24008E-03   -0.46855E-04  4059   0.103E-02    0.792E-01
RMM:  33    -0.233086668643E+04    0.89593E-02   -0.35981E-03  4252   0.227E-02    0.910E-01
RMM:  34    -0.233086767656E+04   -0.99013E-03   -0.62132E-04  4045   0.138E-02    0.819E-01
RMM:  35    -0.233086863683E+04   -0.96027E-03   -0.56960E-05  2939   0.504E-03    0.818E-01
RMM:  36    -0.233087187406E+04   -0.32372E-02   -0.33513E-04  3172   0.718E-03    0.790E-01
RMM:  37    -0.233087471183E+04   -0.28378E-02   -0.32586E-04  3315   0.829E-03    0.797E-01
RMM:  38    -0.233087186491E+04    0.28469E-02   -0.23834E-04  3174   0.740E-03    0.795E-01
RMM:  39    -0.233087663952E+04   -0.47746E-02   -0.54872E-03  4795   0.290E-02    0.681E-01
RMM:  40    -0.233087753878E+04   -0.89926E-03   -0.35970E-03  4431   0.270E-02    0.762E-01
RMM:  41    -0.233087636664E+04    0.11721E-02   -0.32593E-04  3426   0.866E-03    0.786E-01
RMM:  42    -0.233087526026E+04    0.11064E-02   -0.69531E-05  2921   0.470E-03    0.812E-01
RMM:  43    -0.233087871116E+04   -0.34509E-02   -0.41034E-04  3156   0.807E-03    0.726E-01
RMM:  44    -0.233088297342E+04   -0.42623E-02   -0.10156E-03  3932   0.138E-02    0.629E-01
RMM:  45    -0.233089320349E+04   -0.10230E-01   -0.62612E-03  4366   0.313E-02    0.676E-01
RMM:  46    -0.233089874382E+04   -0.55403E-02   -0.18957E-03  4047   0.229E-02    0.933E-01
RMM:  47    -0.233089746233E+04    0.12815E-02   -0.50753E-04  3490   0.103E-02    0.845E-01
RMM:  48    -0.233089574471E+04    0.17176E-02   -0.33006E-03  4626   0.220E-02    0.675E-01
RMM:  49    -0.233089499110E+04    0.75361E-03   -0.33482E-03  4391   0.240E-02    0.666E-01
RMM:  50    -0.233089222166E+04    0.27694E-02   -0.20493E-03  4555   0.184E-02    0.738E-01
RMM:  51    -0.233089075770E+04    0.14640E-02   -0.46275E-04  3590   0.100E-02    0.791E-01
RMM:  52    -0.233088618693E+04    0.45708E-02   -0.88601E-04  4126   0.129E-02    0.945E-01
RMM:  53    -0.233088741157E+04   -0.12246E-02   -0.45901E-05  2915   0.538E-03    0.897E-01
RMM:  54    -0.233088723182E+04    0.17976E-03   -0.21449E-05  2734   0.257E-03    0.903E-01
RMM:  55    -0.233088940145E+04   -0.21696E-02   -0.44049E-04  3377   0.819E-03    0.849E-01
RMM:  56    -0.233089431819E+04   -0.49167E-02   -0.11504E-03  4145   0.146E-02    0.710E-01
RMM:  57    -0.233090082997E+04   -0.65118E-02   -0.28889E-03  4391   0.229E-02    0.737E-01
RMM:  58    -0.233090222879E+04   -0.13988E-02   -0.40152E-04  3362   0.110E-02    0.786E-01
RMM:  59    -0.233090198247E+04    0.24631E-03   -0.43798E-05  2898   0.399E-03    0.784E-01
RMM:  60    -0.233090211716E+04   -0.13469E-03   -0.50360E-06  2632   0.226E-03    0.789E-01
RMM:  61    -0.233090044294E+04    0.16742E-02   -0.23792E-04  3116   0.650E-03    0.744E-01
RMM:  62    -0.233089455339E+04    0.58895E-02   -0.21279E-03  4343   0.186E-02    0.777E-01
RMM:  63    -0.233089308822E+04    0.14652E-02   -0.48157E-04  3400   0.108E-02    0.826E-01
RMM:  64    -0.233089350608E+04   -0.41786E-03   -0.49161E-05  2838   0.334E-03    0.812E-01
RMM:  65    -0.233089347806E+04    0.28019E-04   -0.27538E-06  2421   0.160E-03    0.812E-01
RMM:  66    -0.233089368568E+04   -0.20762E-03   -0.78962E-06  2457   0.167E-03    0.810E-01
RMM:  67    -0.233089489677E+04   -0.12111E-02   -0.10678E-04  2948   0.428E-03    0.792E-01
RMM:  68    -0.233089685337E+04   -0.19566E-02   -0.21350E-04  3156   0.627E-03    0.755E-01
RMM:  69    -0.233089689551E+04   -0.42149E-04   -0.28925E-05  2635   0.343E-03    0.757E-01
RMM:  70    -0.233089696361E+04   -0.68100E-04   -0.77918E-06  2439   0.173E-03    0.757E-01
RMM:  71    -0.233089700369E+04   -0.40072E-04   -0.69287E-06  2260   0.166E-03    0.755E-01
RMM:  72    -0.233089655183E+04    0.45186E-03   -0.62268E-04  3584   0.892E-03    0.787E-01
RMM:  73    -0.233089610038E+04    0.45145E-03   -0.94839E-04  3918   0.117E-02    0.823E-01
RMM:  74    -0.233089581113E+04    0.28925E-03   -0.38682E-04  3281   0.782E-03    0.850E-01
RMM:  75    -0.233089607629E+04   -0.26516E-03   -0.36992E-04  3442   0.759E-03    0.866E-01
RMM:  76    -0.233089621442E+04   -0.13813E-03   -0.23241E-05  2725   0.440E-03    0.860E-01
RMM:  77    -0.233089780622E+04   -0.15918E-02   -0.10131E-04  2916   0.441E-03    0.823E-01
RMM:  78    -0.233089673380E+04    0.10724E-02   -0.47774E-05  2722   0.373E-03    0.848E-01
RMM:  79    -0.233089674857E+04   -0.14771E-04   -0.82559E-06  2402   0.189E-03    0.853E-01
RMM:  80    -0.233089567507E+04    0.10735E-02   -0.73470E-05  2905   0.391E-03    0.892E-01
RMM:  81    -0.233089471169E+04    0.96337E-03   -0.57804E-05  2872   0.373E-03    0.917E-01
RMM:  82    -0.233089817889E+04   -0.34672E-02   -0.14997E-03  4131   0.150E-02    0.786E-01
RMM:  83    -0.233090116051E+04   -0.29816E-02   -0.67185E-04  3644   0.127E-02    0.760E-01
RMM:  84    -0.233090453849E+04   -0.33780E-02   -0.16575E-03  4578   0.161E-02    0.830E-01
RMM:  85    -0.233090728442E+04   -0.27459E-02   -0.13693E-03  4214   0.159E-02    0.978E-01
RMM:  86    -0.233090789776E+04   -0.61334E-03   -0.33206E-04  3275   0.854E-03    0.103E+00
RMM:  87    -0.233090627388E+04    0.16239E-02   -0.46426E-03  4345   0.242E-02    0.107E+00
RMM:  88    -0.233090679314E+04   -0.51927E-03   -0.25190E-03  4102   0.212E-02    0.118E+00
RMM:  89    -0.233090937119E+04   -0.25781E-02   -0.12688E-02  4406   0.392E-02    0.111E+00
RMM:  90    -0.233090685555E+04    0.25156E-02   -0.10007E-02  4489   0.400E-02    0.858E-01
RMM:  91    -0.233090604790E+04    0.80765E-03   -0.85904E-03  4977   0.353E-02    0.774E-01
RMM:  92    -0.233090475122E+04    0.12967E-02   -0.77999E-04  3861   0.158E-02    0.780E-01
RMM:  93    -0.233090684768E+04   -0.20965E-02   -0.24186E-03  4400   0.171E-02    0.807E-01
RMM:  94    -0.233091017139E+04   -0.33237E-02   -0.97645E-04  3690   0.136E-02    0.788E-01
RMM:  95    -0.233090981009E+04    0.36130E-03   -0.28114E-04  3320   0.761E-03    0.811E-01
RMM:  96    -0.233090977638E+04    0.33705E-04   -0.21638E-05  2898   0.378E-03    0.812E-01
RMM:  97    -0.233091264598E+04   -0.28696E-02   -0.10264E-02  4675   0.373E-02    0.111E+00
RMM:  98    -0.233091238418E+04    0.26180E-03   -0.51250E-04  3626   0.170E-02    0.102E+00
RMM:  99    -0.233090852711E+04    0.38571E-02   -0.56097E-04  3359   0.957E-03    0.106E+00
RMM: 100    -0.233090859853E+04   -0.71428E-04   -0.25214E-05  2789   0.448E-03    0.106E+00
RMM: 101    -0.233090859114E+04    0.73948E-05   -0.42759E-06  2292   0.126E-03
   2 F= -.23524074E+04 E0= -.23524064E+04  d E =-.169554E+00  mag=     4.3268
       N       E                     dE             d eps       ncg     rms          rms(c)
DAV:   1    -0.233088180882E+04    0.26790E-01   -0.58001E+00  4576   0.180E+00    0.127E+00
RMM:   2    -0.233103527786E+04   -0.15347E+00   -0.13405E+00  6574   0.549E-01    0.104E+00
RMM:   3    -0.233105834402E+04   -0.23066E-01   -0.15317E-01  5784   0.202E-01    0.148E+00
RMM:   4    -0.233104526468E+04    0.13079E-01   -0.23468E-02  5340   0.670E-02    0.661E-01
RMM:   5    -0.233105066025E+04   -0.53956E-02   -0.13646E-02  5326   0.516E-02    0.770E-01
RMM:   6    -0.233105107767E+04   -0.41742E-03   -0.24564E-02  4828   0.653E-02    0.552E-01
RMM:   7    -0.233105913165E+04   -0.80540E-02   -0.47062E-03  4623   0.383E-02    0.480E-01
RMM:   8    -0.233106518035E+04   -0.60487E-02   -0.25927E-03  4545   0.239E-02    0.517E-01
RMM:   9    -0.233106443316E+04    0.74719E-03   -0.19318E-04  3293   0.104E-02    0.531E-01
RMM:  10    -0.233107684353E+04   -0.12410E-01   -0.82967E-03  4450   0.370E-02    0.428E-01
RMM:  11    -0.233108691782E+04   -0.10074E-01   -0.22477E-02  4707   0.593E-02    0.171E-01
RMM:  12    -0.233108876876E+04   -0.18509E-02   -0.46369E-03  4252   0.348E-02    0.151E-01
RMM:  13    -0.233108941773E+04   -0.64897E-03   -0.12448E-03  4292   0.165E-02    0.764E-02
RMM:  14    -0.233108998168E+04   -0.56395E-03   -0.54701E-04  3979   0.143E-02    0.500E-02
RMM:  15    -0.233109014230E+04   -0.16062E-03   -0.23533E-04  3654   0.870E-03    0.159E-02
RMM:  16    -0.233109025262E+04   -0.11033E-03   -0.32396E-05  3076   0.488E-03    0.123E-02
RMM:  17    -0.233109029652E+04   -0.43894E-04   -0.17431E-05  2940   0.354E-03    0.731E-03
RMM:  18    -0.233109031956E+04   -0.23041E-04   -0.51000E-06  2703   0.259E-03    0.420E-03
RMM:  19    -0.233109033583E+04   -0.16274E-04   -0.41004E-06  2633   0.201E-03    0.345E-03
RMM:  20    -0.233109033971E+04   -0.38754E-05   -0.18671E-06  2560   0.188E-03
   3 F= -.23525898E+04 E0= -.23525894E+04  d E =-.182430E+00  mag=     3.9938
       N       E                     dE             d eps       ncg     rms          rms(c)
DAV:   1    -0.233104314615E+04    0.47190E-01   -0.52538E+00  4568   0.177E+00    0.705E-01
RMM:   2    -0.233114670554E+04   -0.10356E+00   -0.10839E+00  6594   0.515E-01    0.372E-01
RMM:   3    -0.233115609181E+04   -0.93863E-02   -0.12194E-01  5776   0.209E-01    0.296E-01
RMM:   4    -0.233115676951E+04   -0.67770E-03   -0.11519E-02  5484   0.404E-02    0.295E-01
RMM:   5    -0.233115625089E+04    0.51862E-03   -0.19994E-03  4924   0.205E-02    0.153E-01
RMM:   6    -0.233115631732E+04   -0.66437E-04   -0.10386E-03  4658   0.153E-02    0.141E-01
RMM:   7    -0.233115620217E+04    0.11515E-03   -0.45640E-04  3978   0.111E-02    0.897E-02
RMM:   8    -0.233115613636E+04    0.65813E-04   -0.11912E-04  3233   0.669E-03    0.345E-02
RMM:   9    -0.233115614271E+04   -0.63489E-05   -0.56238E-05  2982   0.541E-03
   4 F= -.23526556E+04 E0= -.23526549E+04  d E =-.657667E-01  mag=     3.9894
       N       E                     dE             d eps       ncg     rms          rms(c)
DAV:   1    -0.233113371005E+04    0.22426E-01   -0.27100E+00  4560   0.134E+00    0.512E-01
RMM:   2    -0.233119039410E+04   -0.56684E-01   -0.59060E-01  6585   0.376E-01    0.279E-01
RMM:   3    -0.233119490603E+04   -0.45119E-02   -0.58402E-02  5916   0.137E-01    0.215E-01
RMM:   4    -0.233119505893E+04   -0.15289E-03   -0.58444E-03  5022   0.298E-02    0.194E-01
RMM:   5    -0.233119484697E+04    0.21195E-03   -0.95938E-04  4570   0.150E-02    0.143E-01
RMM:   6    -0.233119480277E+04    0.44204E-04   -0.67595E-04  4469   0.136E-02    0.107E-01
RMM:   7    -0.233119470669E+04    0.96083E-04   -0.22865E-04  3531   0.864E-03    0.385E-02
RMM:   8    -0.233119470806E+04   -0.13713E-05   -0.64140E-05  3061   0.577E-03
   5 F= -.23526941E+04 E0= -.23526930E+04  d E =-.385211E-01  mag=     3.9825
       N       E                     dE             d eps       ncg     rms          rms(c)
DAV:   1    -0.233114637437E+04    0.48332E-01   -0.38321E+00  4544   0.156E+00    0.606E-01
RMM:   2    -0.233122779381E+04   -0.81419E-01   -0.85118E-01  6622   0.432E-01    0.383E-01
RMM:   3    -0.233123506768E+04   -0.72739E-02   -0.89732E-02  6045   0.161E-01    0.370E-01
RMM:   4    -0.233123445481E+04    0.61288E-03   -0.86521E-03  5314   0.347E-02    0.214E-01
RMM:   5    -0.233123427149E+04    0.18331E-03   -0.11201E-03  4413   0.159E-02    0.180E-01
RMM:   6    -0.233123410193E+04    0.16957E-03   -0.98857E-04  4791   0.155E-02    0.130E-01
RMM:   7    -0.233123399168E+04    0.11025E-03   -0.42182E-04  4193   0.109E-02    0.627E-02
RMM:   8    -0.233123398130E+04    0.10382E-04   -0.13800E-04  3204   0.741E-03    0.475E-02
RMM:   9    -0.233123396522E+04    0.16078E-04   -0.37125E-05  2991   0.447E-03    0.224E-02
RMM:  10    -0.233123397032E+04   -0.51068E-05   -0.20709E-05  2887   0.349E-03
   6 F= -.23527333E+04 E0= -.23527315E+04  d E =-.392179E-01  mag=     3.9658
       N       E                     dE             d eps       ncg     rms          rms(c)
DAV:   1    -0.233121245987E+04    0.21505E-01   -0.20491E+00  4560   0.114E+00    0.462E-01
RMM:   2    -0.233125820447E+04   -0.45745E-01   -0.47499E-01  6623   0.307E-01    0.407E-01
RMM:   3    -0.233126199263E+04   -0.37882E-02   -0.51604E-02  6072   0.120E-01    0.347E-01
RMM:   4    -0.233126119274E+04    0.79989E-03   -0.50440E-03  4900   0.267E-02    0.146E-01
RMM:   5    -0.233126113567E+04    0.57070E-04   -0.50449E-04  3679   0.110E-02    0.141E-01
RMM:   6    -0.233126094317E+04    0.19250E-03   -0.47896E-04  4221   0.115E-02    0.847E-02
RMM:   7    -0.233126092865E+04    0.14522E-04   -0.28772E-04  3934   0.985E-03    0.543E-02
RMM:   8    -0.233126089921E+04    0.29439E-04   -0.56800E-05  3029   0.581E-03    0.225E-02
RMM:   9    -0.233126089737E+04    0.18357E-05   -0.12713E-05  2900   0.286E-03
   7 F= -.23527603E+04 E0= -.23527580E+04  d E =-.269974E-01  mag=     3.9509
       N       E                     dE             d eps       ncg     rms          rms(c)
DAV:   1    -0.233116644019E+04    0.94459E-01   -0.54413E+00  4544   0.184E+00    0.762E-01
RMM:   2    -0.233129244076E+04   -0.12600E+00   -0.12982E+00  6675   0.504E-01    0.758E-01
RMM:   3    -0.233130152906E+04   -0.90883E-02   -0.14062E-01  6282   0.193E-01    0.585E-01
RMM:   4    -0.233129926915E+04    0.22599E-02   -0.13706E-02  5665   0.432E-02    0.242E-01
RMM:   5    -0.233129913375E+04    0.13540E-03   -0.13440E-03  4620   0.166E-02    0.239E-01
RMM:   6    -0.233129852685E+04    0.60690E-03   -0.12702E-03  5071   0.174E-02    0.133E-01
RMM:   7    -0.233129851627E+04    0.10584E-04   -0.81300E-04  4704   0.153E-02    0.936E-02
RMM:   8    -0.233129842502E+04    0.91247E-04   -0.16562E-04  3242   0.790E-03    0.397E-02
RMM:   9    -0.233129841717E+04    0.78516E-05   -0.35160E-05  3043   0.408E-03
   8 F= -.23527981E+04 E0= -.23527945E+04  d E =-.378260E-01  mag=     3.9231
       N       E                     dE             d eps       ncg     rms          rms(c)
DAV:   1    -0.233126850269E+04    0.29922E-01   -0.21110E+00  4560   0.117E+00    0.495E-01
RMM:   2    -0.233131864802E+04   -0.50145E-01   -0.50654E-01  6624   0.317E-01    0.600E-01
RMM:   3    -0.233132049400E+04   -0.18460E-02   -0.52864E-02  6157   0.120E-01    0.344E-01
RMM:   4    -0.233131983527E+04    0.65873E-03   -0.53574E-03  4995   0.262E-02    0.159E-01
RMM:   5    -0.233131977949E+04    0.55784E-04   -0.49871E-04  3648   0.111E-02    0.149E-01
RMM:   6    -0.233131952272E+04    0.25676E-03   -0.49364E-04  4542   0.120E-02    0.758E-02
RMM:   7    -0.233131953159E+04   -0.88700E-05   -0.25855E-04  3739   0.975E-03    0.527E-02
RMM:   8    -0.233131951813E+04    0.13466E-04   -0.38631E-05  2964   0.524E-03    0.376E-02
RMM:   9    -0.233131952093E+04   -0.27996E-05   -0.14992E-05  2830   0.299E-03
   9 F= -.23528195E+04 E0= -.23528144E+04  d E =-.213790E-01  mag=     3.8758
       N       E                     dE             d eps       ncg     rms          rms(c)
DAV:   1    -0.233129111576E+04    0.28402E-01   -0.19631E+00  4544   0.112E+00    0.490E-01
RMM:   2    -0.233133830316E+04   -0.47187E-01   -0.47148E-01  6662   0.303E-01    0.635E-01
RMM:   3    -0.233133931434E+04   -0.10112E-02   -0.48900E-02  6143   0.114E-01    0.356E-01
RMM:   4    -0.233133877274E+04    0.54159E-03   -0.50098E-03  4783   0.246E-02    0.193E-01
RMM:   5    -0.233133868569E+04    0.87054E-04   -0.33280E-04  3340   0.943E-03    0.170E-01
RMM:   6    -0.233133863496E+04    0.50731E-04   -0.40972E-04  4199   0.105E-02    0.190E-01
RMM:   7    -0.233133867306E+04   -0.38100E-04   -0.56333E-05  2994   0.546E-03    0.207E-01
RMM:   8    -0.233133843605E+04    0.23701E-03   -0.74295E-04  4241   0.129E-02    0.118E-01
RMM:   9    -0.233133837743E+04    0.58622E-04   -0.36226E-04  3663   0.994E-03    0.815E-02
RMM:  10    -0.233133832226E+04    0.55167E-04   -0.11829E-04  3131   0.605E-03    0.783E-02
RMM:  11    -0.233133823688E+04    0.85379E-04   -0.13125E-04  3179   0.604E-03    0.810E-02
RMM:  12    -0.233133817610E+04    0.60780E-04   -0.58676E-05  2950   0.492E-03    0.883E-02
RMM:  13    -0.233133830335E+04   -0.12725E-03   -0.15404E-04  3023   0.616E-03    0.738E-02
RMM:  14    -0.233133842078E+04   -0.11743E-03   -0.30956E-04  3608   0.794E-03    0.786E-02
RMM:  15    -0.233133845806E+04   -0.37279E-04   -0.63729E-05  2820   0.436E-03    0.875E-02
RMM:  16    -0.233133837106E+04    0.87006E-04   -0.63912E-05  2742   0.377E-03    0.709E-02
RMM:  17    -0.233133819369E+04    0.17737E-03   -0.42383E-04  3769   0.888E-03    0.763E-02
RMM:  18    -0.233133797950E+04    0.21419E-03   -0.39251E-04  3443   0.904E-03    0.108E-01
RMM:  19    -0.233133807226E+04   -0.92762E-04   -0.24309E-05  2744   0.371E-03    0.902E-02
RMM:  20    -0.233133821904E+04   -0.14678E-03   -0.15177E-04  3055   0.552E-03    0.662E-02
RMM:  21    -0.233133837722E+04   -0.15818E-03   -0.29950E-04  3524   0.741E-03    0.610E-02
RMM:  22    -0.233133851159E+04   -0.13437E-03   -0.22659E-04  3128   0.623E-03    0.780E-02
RMM:  23    -0.233133849801E+04    0.13582E-04   -0.13898E-05  2634   0.302E-03    0.786E-02
RMM:  24    -0.233133850287E+04   -0.48618E-05   -0.31027E-06  2191   0.119E-03
  10 F= -.23528389E+04 E0= -.23528320E+04  d E =-.193525E-01  mag=     3.7969
       N       E                     dE             d eps       ncg     rms          rms(c)
DAV:   1    -0.233130600444E+04    0.32494E-01   -0.21627E+00  4544   0.117E+00    0.539E-01
RMM:   2    -0.233135761184E+04   -0.51607E-01   -0.51232E-01  6646   0.315E-01    0.662E-01
RMM:   3    -0.233135936273E+04   -0.17509E-02   -0.53526E-02  6164   0.119E-01    0.588E-01
RMM:   4    -0.233135933828E+04    0.24450E-04   -0.57194E-03  4510   0.257E-02    0.585E-01
RMM:   5    -0.233135937643E+04   -0.38152E-04   -0.11768E-03  4468   0.153E-02    0.532E-01
RMM:   6    -0.233135779379E+04    0.15826E-02   -0.11984E-03  4499   0.159E-02    0.280E-01
RMM:   7    -0.233135714893E+04    0.64486E-03   -0.82546E-04  4484   0.131E-02    0.208E-01
RMM:   8    -0.233135670615E+04    0.44277E-03   -0.12139E-03  4686   0.173E-02    0.190E-01
RMM:   9    -0.233135591998E+04    0.78617E-03   -0.15317E-03  4759   0.185E-02    0.221E-01
RMM:  10    -0.233135551345E+04    0.40653E-03   -0.39505E-04  3530   0.932E-03    0.243E-01
RMM:  11    -0.233135659458E+04   -0.10811E-02   -0.12852E-03  4074   0.155E-02    0.171E-01
RMM:  12    -0.233135707691E+04   -0.48233E-03   -0.97265E-04  4030   0.151E-02    0.166E-01
RMM:  13    -0.233135873118E+04   -0.16543E-02   -0.29791E-03  4822   0.237E-02    0.417E-01
RMM:  14    -0.233135736183E+04    0.13694E-02   -0.99335E-04  4311   0.155E-02    0.212E-01
RMM:  15    -0.233135713742E+04    0.22441E-03   -0.22587E-04  3159   0.788E-03    0.192E-01
RMM:  16    -0.233135674138E+04    0.39604E-03   -0.46015E-04  4045   0.955E-03    0.163E-01
RMM:  17    -0.233135651139E+04    0.22999E-03   -0.21998E-04  3246   0.765E-03    0.160E-01
RMM:  18    -0.233135631305E+04    0.19835E-03   -0.18044E-04  3251   0.638E-03    0.172E-01
RMM:  19    -0.233135583058E+04    0.48247E-03   -0.44935E-04  3843   0.969E-03    0.222E-01
RMM:  20    -0.233135609983E+04   -0.26925E-03   -0.72246E-05  2858   0.516E-03    0.187E-01
RMM:  21    -0.233135628807E+04   -0.18824E-03   -0.94461E-05  2935   0.452E-03    0.161E-01
RMM:  22    -0.233135686169E+04   -0.57362E-03   -0.98857E-04  4332   0.133E-02    0.135E-01
RMM:  23    -0.233135739050E+04   -0.52880E-03   -0.79280E-04  3952   0.127E-02    0.189E-01
RMM:  24    -0.233135843214E+04   -0.10416E-02   -0.10497E-03  4453   0.135E-02    0.346E-01
RMM:  25    -0.233135856093E+04   -0.12879E-03   -0.10110E-04  2979   0.640E-03    0.371E-01
RMM:  26    -0.233135818279E+04    0.37814E-03   -0.43735E-05  2717   0.376E-03    0.322E-01
RMM:  27    -0.233135793144E+04    0.25136E-03   -0.51117E-05  2790   0.337E-03    0.288E-01
RMM:  28    -0.233135788728E+04    0.44159E-04   -0.10399E-05  2436   0.189E-03    0.282E-01
RMM:  29    -0.233135781868E+04    0.68602E-04   -0.11998E-05  2553   0.166E-03    0.276E-01
RMM:  30    -0.233135775025E+04    0.68430E-04   -0.68786E-06  2393   0.153E-03    0.267E-01
RMM:  31    -0.233135776920E+04   -0.18953E-04   -0.53577E-07  1703   0.931E-04    0.268E-01
RMM:  32    -0.233135785549E+04   -0.86291E-04   -0.12472E-05  2252   0.169E-03    0.271E-01
RMM:  33    -0.233135771829E+04    0.13720E-03   -0.20550E-05  2505   0.223E-03    0.234E-01
RMM:  34    -0.233135740536E+04    0.31294E-03   -0.93116E-05  2972   0.403E-03    0.187E-01
RMM:  35    -0.233135711615E+04    0.28921E-03   -0.15908E-04  3095   0.534E-03    0.152E-01
RMM:  36    -0.233135684326E+04    0.27289E-03   -0.27987E-04  3258   0.671E-03    0.134E-01
RMM:  37    -0.233135659791E+04    0.24535E-03   -0.29152E-04  3281   0.713E-03    0.133E-01
RMM:  38    -0.233135641115E+04    0.18676E-03   -0.18581E-04  3135   0.617E-03    0.142E-01
RMM:  39    -0.233135627511E+04    0.13605E-03   -0.92428E-05  2969   0.481E-03    0.152E-01
RMM:  40    -0.233135623160E+04    0.43503E-04   -0.19168E-05  2707   0.318E-03    0.155E-01
RMM:  41    -0.233135623523E+04   -0.36250E-05   -0.25357E-06  2385   0.174E-03
  11 F= -.23528570E+04 E0= -.23528529E+04  d E =-.180705E-01  mag=     3.9447
       N       E                     dE             d eps       ncg     rms          rms(c)
DAV:   1    -0.233133245893E+04    0.23773E-01   -0.16429E+00  4544   0.102E+00    0.470E-01
RMM:   2    -0.233137087386E+04   -0.38415E-01   -0.38260E-01  6651   0.270E-01    0.572E-01
RMM:   3    -0.233137208737E+04   -0.12135E-02   -0.40334E-02  6030   0.102E-01    0.395E-01
RMM:   4    -0.233137159362E+04    0.49375E-03   -0.42376E-03  4582   0.227E-02    0.253E-01
RMM:   5    -0.233137153223E+04    0.61389E-04   -0.19558E-04  3134   0.736E-03    0.236E-01
RMM:   6    -0.233137167967E+04   -0.14744E-03   -0.29435E-04  3779   0.870E-03    0.280E-01
RMM:   7    -0.233137142614E+04    0.25353E-03   -0.52435E-04  3898   0.109E-02    0.237E-01
RMM:   8    -0.233137110088E+04    0.32526E-03   -0.66124E-04  4158   0.124E-02    0.201E-01
RMM:   9    -0.233137000902E+04    0.10919E-02   -0.29573E-03  4781   0.240E-02    0.312E-01
RMM:  10    -0.233137035019E+04   -0.34117E-03   -0.13414E-04  3091   0.819E-03    0.269E-01
RMM:  11    -0.233137057099E+04   -0.22080E-03   -0.35929E-04  3905   0.939E-03    0.171E-01
RMM:  12    -0.233137097885E+04   -0.40786E-03   -0.58713E-04  3981   0.112E-02    0.126E-01
RMM:  13    -0.233137126391E+04   -0.28506E-03   -0.45705E-04  3706   0.101E-02    0.119E-01
RMM:  14    -0.233137146455E+04   -0.20065E-03   -0.23488E-04  3276   0.707E-03    0.138E-01
RMM:  15    -0.233137105410E+04    0.41046E-03   -0.42074E-04  3525   0.958E-03    0.127E-01
RMM:  16    -0.233137090962E+04    0.14447E-03   -0.13036E-04  2967   0.592E-03    0.135E-01
RMM:  17    -0.233137009676E+04    0.81286E-03   -0.12005E-03  4346   0.144E-02    0.228E-01
RMM:  18    -0.233137058723E+04   -0.49046E-03   -0.18753E-04  3321   0.734E-03    0.169E-01
RMM:  19    -0.233137107554E+04   -0.48831E-03   -0.49173E-04  3877   0.990E-03    0.136E-01
RMM:  20    -0.233137151919E+04   -0.44365E-03   -0.61906E-04  3859   0.113E-02    0.149E-01
RMM:  21    -0.233137202382E+04   -0.50463E-03   -0.59948E-04  3890   0.105E-02    0.210E-01
RMM:  22    -0.233137154170E+04    0.48212E-03   -0.25417E-04  3321   0.775E-03    0.159E-01
RMM:  23    -0.233137129029E+04    0.25141E-03   -0.20204E-04  3105   0.660E-03    0.146E-01
RMM:  24    -0.233137084168E+04    0.44861E-03   -0.59136E-04  4017   0.104E-02    0.163E-01
RMM:  25    -0.233137029513E+04    0.54655E-03   -0.68040E-04  3957   0.114E-02    0.226E-01
RMM:  26    -0.233137010428E+04    0.19084E-03   -0.15367E-04  3064   0.587E-03    0.249E-01
RMM:  27    -0.233137009818E+04    0.61066E-05   -0.15962E-05  2698   0.280E-03
  12 F= -.23528712E+04 E0= -.23528684E+04  d E =-.142431E-01  mag=     4.0155
       N       E                     dE             d eps       ncg     rms          rms(c)
DAV:   1    -0.233137230463E+04   -0.22003E-02   -0.20268E-01  4576   0.362E-01    0.269E-01
RMM:   2    -0.233137692822E+04   -0.46236E-02   -0.41492E-02  6525   0.918E-02    0.279E-01
RMM:   3    -0.233137703444E+04   -0.10622E-03   -0.47168E-03  4879   0.350E-02    0.250E-01
RMM:   4    -0.233137689736E+04    0.13709E-03   -0.72327E-04  3719   0.113E-02    0.172E-01
RMM:   5    -0.233137702818E+04   -0.13083E-03   -0.40582E-04  3976   0.100E-02    0.184E-01
RMM:   6    -0.233137706566E+04   -0.37480E-04   -0.12008E-03  4450   0.165E-02    0.225E-01
RMM:   7    -0.233137712660E+04   -0.60933E-04   -0.36621E-04  3795   0.104E-02    0.217E-01
RMM:   8    -0.233137651352E+04    0.61307E-03   -0.23821E-03  4458   0.214E-02    0.175E-01
RMM:   9    -0.233137569613E+04    0.81740E-03   -0.16694E-03  4213   0.197E-02    0.313E-01
RMM:  10    -0.233137683604E+04   -0.11399E-02   -0.16567E-03  4257   0.186E-02    0.140E-01
RMM:  11    -0.233137696024E+04   -0.12421E-03   -0.50337E-04  3785   0.124E-02    0.998E-02
RMM:  12    -0.233137719787E+04   -0.23763E-03   -0.70205E-04  4302   0.120E-02    0.118E-01
RMM:  13    -0.233137725744E+04   -0.59573E-04   -0.77042E-05  2999   0.606E-03    0.130E-01
RMM:  14    -0.233137711188E+04    0.14556E-03   -0.16018E-04  3060   0.636E-03    0.104E-01
RMM:  15    -0.233137653151E+04    0.58037E-03   -0.20143E-03  4340   0.190E-02    0.159E-01
RMM:  16    -0.233137558719E+04    0.94431E-03   -0.14423E-03  4063   0.172E-02    0.291E-01
RMM:  17    -0.233137599103E+04   -0.40384E-03   -0.75748E-05  2942   0.530E-03    0.238E-01
RMM:  18    -0.233137643472E+04   -0.44369E-03   -0.22077E-04  3244   0.696E-03    0.173E-01
RMM:  19    -0.233137680024E+04   -0.36551E-03   -0.36252E-04  3628   0.851E-03    0.122E-01
RMM:  20    -0.233137713465E+04   -0.33441E-03   -0.57536E-04  3723   0.101E-02    0.995E-02
RMM:  21    -0.233137745401E+04   -0.31936E-03   -0.55021E-04  3856   0.999E-03    0.126E-01
RMM:  22    -0.233137728062E+04    0.17339E-03   -0.74689E-05  2900   0.523E-03    0.112E-01
RMM:  23    -0.233137716642E+04    0.11420E-03   -0.72832E-05  2861   0.420E-03    0.110E-01
RMM:  24    -0.233137700471E+04    0.16171E-03   -0.14469E-04  3089   0.544E-03    0.116E-01
RMM:  25    -0.233137676642E+04    0.23829E-03   -0.27650E-04  3314   0.705E-03    0.144E-01
RMM:  26    -0.233137654283E+04    0.22359E-03   -0.19960E-04  3107   0.629E-03    0.177E-01
RMM:  27    -0.233137680053E+04   -0.25770E-03   -0.11416E-04  2930   0.552E-03    0.138E-01
RMM:  28    -0.233137712505E+04   -0.32452E-03   -0.46563E-04  3808   0.946E-03    0.106E-01
RMM:  29    -0.233137748452E+04   -0.35947E-03   -0.66246E-04  3879   0.111E-02    0.127E-01
RMM:  30    -0.233137812092E+04   -0.63640E-03   -0.89853E-04  4114   0.125E-02    0.228E-01
RMM:  31    -0.233137820363E+04   -0.82714E-04   -0.91635E-05  2932   0.581E-03    0.246E-01
RMM:  32    -0.233137822084E+04   -0.17210E-04   -0.19948E-05  2723   0.246E-03    0.253E-01
RMM:  33    -0.233137827508E+04   -0.54235E-04   -0.53665E-06  2550   0.215E-03    0.261E-01
RMM:  34    -0.233137846339E+04   -0.18832E-03   -0.26435E-05  2816   0.255E-03    0.292E-01
RMM:  35    -0.233137853059E+04   -0.67196E-04   -0.86128E-06  2568   0.209E-03    0.302E-01
RMM:  36    -0.233137844607E+04    0.84517E-04   -0.23339E-06  2136   0.125E-03    0.289E-01
RMM:  37    -0.233137831989E+04    0.12619E-03   -0.98664E-06  2302   0.150E-03    0.267E-01
RMM:  38    -0.233137808184E+04    0.23805E-03   -0.46368E-05  2788   0.295E-03    0.226E-01
RMM:  39    -0.233137783670E+04    0.24514E-03   -0.85189E-05  2902   0.377E-03    0.183E-01
RMM:  40    -0.233137769963E+04    0.13707E-03   -0.54810E-05  2779   0.317E-03    0.159E-01
RMM:  41    -0.233137747162E+04    0.22801E-03   -0.14362E-04  3140   0.508E-03    0.127E-01
RMM:  42    -0.233137731161E+04    0.16001E-03   -0.12367E-04  3012   0.517E-03    0.111E-01
RMM:  43    -0.233137718715E+04    0.12446E-03   -0.11692E-04  3037   0.500E-03    0.106E-01
RMM:  44    -0.233137704203E+04    0.14511E-03   -0.12474E-04  3097   0.547E-03    0.109E-01
RMM:  45    -0.233137698347E+04    0.58562E-04   -0.41190E-05  2806   0.395E-03    0.112E-01
RMM:  46    -0.233137695699E+04    0.26480E-04   -0.13058E-05  2640   0.245E-03    0.114E-01
RMM:  47    -0.233137696971E+04   -0.12717E-04   -0.14127E-06  2321   0.167E-03    0.112E-01
RMM:  48    -0.233137697008E+04   -0.37075E-06   -0.48873E-07  1682   0.870E-04
  13 F= -.23528783E+04 E0= -.23528736E+04  d E =-.709518E-02  mag=     3.9040
       N       E                     dE             d eps       ncg     rms          rms(c)
DAV:   1    -0.233131134104E+04    0.65629E-01   -0.38909E+00  4512   0.156E+00    0.657E-01
RMM:   2    -0.233139564009E+04   -0.84299E-01   -0.85934E-01  6646   0.403E-01    0.749E-01
RMM:   3    -0.233140051050E+04   -0.48704E-02   -0.93505E-02  6231   0.152E-01    0.551E-01
RMM:   4    -0.233139908651E+04    0.14240E-02   -0.94924E-03  5273   0.337E-02    0.276E-01
RMM:   5    -0.233139894343E+04    0.14308E-03   -0.86771E-04  4202   0.137E-02    0.246E-01
RMM:   6    -0.233139891842E+04    0.25009E-04   -0.96802E-04  4736   0.155E-02    0.298E-01
RMM:   7    -0.233139890251E+04    0.15906E-04   -0.70962E-05  2996   0.662E-03    0.296E-01
RMM:   8    -0.233139871359E+04    0.18892E-03   -0.20255E-04  3189   0.737E-03    0.246E-01
RMM:   9    -0.233139836425E+04    0.34934E-03   -0.12937E-03  4381   0.166E-02    0.266E-01
RMM:  10    -0.233139762419E+04    0.74006E-03   -0.23878E-03  4561   0.219E-02    0.313E-01
RMM:  11    -0.233139817101E+04   -0.54683E-03   -0.59990E-04  4076   0.122E-02    0.243E-01
RMM:  12    -0.233139838882E+04   -0.21781E-03   -0.80079E-04  4246   0.137E-02    0.163E-01
RMM:  13    -0.233139894803E+04   -0.55920E-03   -0.14038E-03  4467   0.178E-02    0.231E-01
RMM:  14    -0.233139915608E+04   -0.20805E-03   -0.24714E-04  3251   0.867E-03    0.268E-01
RMM:  15    -0.233139879008E+04    0.36600E-03   -0.12341E-04  3020   0.613E-03    0.191E-01
RMM:  16    -0.233139824790E+04    0.54218E-03   -0.11739E-03  4158   0.148E-02    0.127E-01
RMM:  17    -0.233139791173E+04    0.33617E-03   -0.83194E-04  3854   0.134E-02    0.150E-01
RMM:  18    -0.233139765339E+04    0.25834E-03   -0.40075E-04  3570   0.823E-03    0.176E-01
RMM:  19    -0.233139753076E+04    0.12263E-03   -0.69083E-05  2947   0.479E-03    0.187E-01
RMM:  20    -0.233139789517E+04   -0.36441E-03   -0.18852E-04  3010   0.628E-03    0.149E-01
RMM:  21    -0.233139824626E+04   -0.35109E-03   -0.45260E-04  3653   0.923E-03    0.133E-01
RMM:  22    -0.233139846303E+04   -0.21677E-03   -0.27594E-04  3206   0.721E-03    0.144E-01
RMM:  23    -0.233139841120E+04    0.51828E-04   -0.15472E-05  2656   0.322E-03    0.143E-01
RMM:  24    -0.233139814619E+04    0.26501E-03   -0.24428E-04  3178   0.677E-03    0.147E-01
RMM:  25    -0.233139792394E+04    0.22225E-03   -0.26462E-04  3292   0.710E-03    0.177E-01
RMM:  26    -0.233139828102E+04   -0.35708E-03   -0.35545E-04  3607   0.851E-03    0.138E-01
RMM:  27    -0.233139914813E+04   -0.86712E-03   -0.20757E-03  4605   0.197E-02    0.208E-01
RMM:  28    -0.233139907214E+04    0.75996E-04   -0.11855E-04  2962   0.725E-03    0.202E-01
RMM:  29    -0.233139987542E+04   -0.80329E-03   -0.53002E-04  3812   0.903E-03    0.332E-01
RMM:  30    -0.233139959535E+04    0.28008E-03   -0.39446E-05  2843   0.489E-03    0.283E-01
RMM:  31    -0.233139921083E+04    0.38452E-03   -0.95896E-05  2905   0.452E-03    0.212E-01
RMM:  32    -0.233139890260E+04    0.30823E-03   -0.13146E-04  3056   0.529E-03    0.165E-01
RMM:  33    -0.233139883722E+04    0.65381E-04   -0.35114E-05  2607   0.319E-03    0.152E-01
RMM:  34    -0.233139871694E+04    0.12029E-03   -0.36824E-05  2823   0.276E-03    0.126E-01
RMM:  35    -0.233139874604E+04   -0.29101E-04   -0.75528E-06  2408   0.226E-03    0.121E-01
RMM:  36    -0.233139876310E+04   -0.17059E-04   -0.26414E-06  1662   0.103E-03    0.122E-01
RMM:  37    -0.233139877890E+04   -0.15806E-04   -0.10298E-06  1458   0.918E-04    0.123E-01
RMM:  38    -0.233139882127E+04   -0.42363E-04   -0.52395E-06  1789   0.117E-03    0.127E-01
RMM:  39    -0.233139874620E+04    0.75070E-04   -0.10549E-05  1756   0.160E-03    0.121E-01
RMM:  40    -0.233139864353E+04    0.10267E-03   -0.33719E-05  2484   0.256E-03    0.114E-01
RMM:  41    -0.233139850160E+04    0.14193E-03   -0.87774E-05  2909   0.386E-03    0.107E-01
RMM:  42    -0.233139832833E+04    0.17327E-03   -0.18096E-04  3089   0.537E-03    0.108E-01
RMM:  43    -0.233139812323E+04    0.20510E-03   -0.26219E-04  3207   0.661E-03    0.120E-01
RMM:  44    -0.233139788421E+04    0.23902E-03   -0.30592E-04  3415   0.741E-03    0.149E-01
RMM:  45    -0.233139769589E+04    0.18832E-03   -0.18140E-04  3101   0.608E-03    0.176E-01
RMM:  46    -0.233139758830E+04    0.10759E-03   -0.57976E-05  2879   0.417E-03    0.192E-01
RMM:  47    -0.233139766988E+04   -0.81580E-04   -0.11058E-05  2557   0.270E-03    0.176E-01
RMM:  48    -0.233139795729E+04   -0.28741E-03   -0.20642E-04  3098   0.611E-03    0.135E-01
RMM:  49    -0.233139835443E+04   -0.39714E-03   -0.69139E-04  4006   0.109E-02    0.112E-01
RMM:  50    -0.233139874350E+04   -0.38908E-03   -0.64617E-04  3685   0.108E-02    0.149E-01
RMM:  51    -0.233139906240E+04   -0.31889E-03   -0.30128E-04  3374   0.723E-03    0.200E-01
RMM:  52    -0.233139935357E+04   -0.29118E-03   -0.14648E-04  3069   0.577E-03    0.252E-01
RMM:  53    -0.233139950032E+04   -0.14675E-03   -0.38772E-05  2828   0.388E-03    0.281E-01
RMM:  54    -0.233139952218E+04   -0.21855E-04   -0.68477E-06  2527   0.240E-03    0.287E-01
RMM:  55    -0.233139952751E+04   -0.53344E-05   -0.15371E-06  2260   0.142E-03
  14 F= -.23529015E+04 E0= -.23528916E+04  d E =-.231785E-01  mag=     3.7171
       N       E                     dE             d eps       ncg     rms          rms(c)
DAV:   1    -0.233140068414E+04   -0.11620E-02   -0.40481E-02  4576   0.162E-01    0.330E-01
RMM:   2    -0.233140419489E+04   -0.35108E-02   -0.12690E-02  6139   0.497E-02    0.650E-01
RMM:   3    -0.233140374772E+04    0.44717E-03   -0.30348E-03  4467   0.289E-02    0.491E-01
RMM:   4    -0.233140121592E+04    0.25318E-02   -0.42327E-03  5125   0.258E-02    0.307E-01
RMM:   5    -0.233140083761E+04    0.37831E-03   -0.96811E-04  4091   0.118E-02    0.277E-01
RMM:   6    -0.233140049474E+04    0.34287E-03   -0.16242E-04  3132   0.700E-03    0.214E-01
RMM:   7    -0.233139980420E+04    0.69053E-03   -0.55488E-04  4114   0.107E-02    0.176E-01
RMM:   8    -0.233139920029E+04    0.60392E-03   -0.48940E-04  3823   0.110E-02    0.202E-01
RMM:   9    -0.233140062464E+04   -0.14244E-02   -0.19638E-03  4260   0.196E-02    0.202E-01
RMM:  10    -0.233140165863E+04   -0.10340E-02   -0.13450E-03  4060   0.174E-02    0.330E-01
RMM:  11    -0.233140049056E+04    0.11681E-02   -0.84310E-04  4039   0.136E-02    0.191E-01
RMM:  12    -0.233140002902E+04    0.46155E-03   -0.68268E-04  3965   0.125E-02    0.176E-01
RMM:  13    -0.233139948373E+04    0.54529E-03   -0.80137E-04  4175   0.129E-02    0.207E-01
RMM:  14    -0.233139848820E+04    0.99553E-03   -0.11783E-03  4390   0.152E-02    0.323E-01
RMM:  15    -0.233139941034E+04   -0.92214E-03   -0.52444E-04  3888   0.105E-02    0.210E-01
RMM:  16    -0.233139944196E+04   -0.31621E-04   -0.35193E-05  2835   0.419E-03    0.204E-01
RMM:  17    -0.233140048216E+04   -0.10402E-02   -0.22589E-03  4666   0.201E-02    0.157E-01
RMM:  18    -0.233140274459E+04   -0.22624E-02   -0.41224E-03  4838   0.284E-02    0.456E-01
RMM:  19    -0.233140721876E+04   -0.44742E-02   -0.32420E-03  4846   0.237E-02    0.957E-01
RMM:  20    -0.233140742812E+04   -0.20937E-03   -0.28317E-04  3107   0.987E-03    0.994E-01
RMM:  21    -0.233140699464E+04    0.43349E-03   -0.59403E-05  2926   0.389E-03    0.967E-01
RMM:  22    -0.233140677970E+04    0.21494E-03   -0.53330E-06  2670   0.218E-03    0.948E-01
RMM:  23    -0.233140661594E+04    0.16376E-03   -0.69076E-06  2479   0.183E-03    0.938E-01
RMM:  24    -0.233140614189E+04    0.47405E-03   -0.44604E-05  2882   0.313E-03    0.909E-01
RMM:  25    -0.233140485663E+04    0.12853E-02   -0.17860E-04  3149   0.551E-03    0.787E-01
RMM:  26    -0.233140365294E+04    0.12037E-02   -0.26351E-04  3237   0.679E-03    0.655E-01
RMM:  27    -0.233140128503E+04    0.23679E-02   -0.18540E-03  4693   0.177E-02    0.356E-01
RMM:  28    -0.233140017012E+04    0.11149E-02   -0.23994E-03  4661   0.214E-02    0.231E-01
RMM:  29    -0.233139995957E+04    0.21055E-03   -0.71589E-04  3809   0.110E-02    0.228E-01
RMM:  30    -0.233139989698E+04    0.62592E-04   -0.10169E-04  3010   0.468E-03    0.225E-01
RMM:  31    -0.233139971298E+04    0.18400E-03   -0.78525E-05  3009   0.457E-03    0.224E-01
RMM:  32    -0.233139830030E+04    0.14127E-02   -0.16920E-03  4599   0.174E-02    0.367E-01
RMM:  33    -0.233139646250E+04    0.18378E-02   -0.13562E-03  4243   0.168E-02    0.562E-01
RMM:  34    -0.233139582124E+04    0.64126E-03   -0.36994E-04  3387   0.784E-03    0.624E-01
RMM:  35    -0.233139582716E+04   -0.59164E-05   -0.26090E-05  2797   0.345E-03
  15 F= -.23528978E+04 E0= -.23528969E+04  d E =0.370603E-02  mag=     4.2126
       N       E                     dE             d eps       ncg     rms          rms(c)
DAV:   1    -0.233134618584E+04    0.49635E-01   -0.33650E+00  4512   0.146E+00    0.867E-01
RMM:   2    -0.233141745224E+04   -0.71266E-01   -0.69612E-01  6628   0.367E-01    0.871E-01
RMM:   3    -0.233142158348E+04   -0.41312E-02   -0.81171E-02  6180   0.140E-01    0.739E-01
RMM:   4    -0.233141847047E+04    0.31130E-02   -0.88175E-03  5317   0.375E-02    0.337E-01
RMM:   5    -0.233141897448E+04   -0.50401E-03   -0.31162E-03  5249   0.264E-02    0.359E-01
RMM:   6    -0.233141780693E+04    0.11675E-02   -0.23146E-03  4924   0.254E-02    0.218E-01
RMM:   7    -0.233141767375E+04    0.13318E-03   -0.13112E-03  4588   0.186E-02    0.171E-01
RMM:   8    -0.233141767248E+04    0.12737E-05   -0.43154E-04  4147   0.114E-02    0.223E-01
RMM:   9    -0.233141754079E+04    0.13169E-03   -0.60444E-04  3810   0.115E-02    0.136E-01
RMM:  10    -0.233141779615E+04   -0.25537E-03   -0.13885E-03  4257   0.170E-02    0.157E-01
RMM:  11    -0.233141764941E+04    0.14674E-03   -0.12182E-03  4138   0.165E-02    0.234E-01
RMM:  12    -0.233141755910E+04    0.90312E-04   -0.18847E-04  3175   0.712E-03    0.254E-01
RMM:  13    -0.233141800201E+04   -0.44291E-03   -0.28681E-04  3294   0.826E-03    0.189E-01
RMM:  14    -0.233141858717E+04   -0.58516E-03   -0.63102E-04  4031   0.120E-02    0.148E-01
RMM:  15    -0.233141899659E+04   -0.40942E-03   -0.61665E-04  3800   0.115E-02    0.155E-01
RMM:  16    -0.233142069989E+04   -0.17033E-02   -0.31047E-03  4919   0.239E-02    0.407E-01
RMM:  17    -0.233141890108E+04    0.17988E-02   -0.40055E-03  4831   0.273E-02    0.139E-01
RMM:  18    -0.233141783161E+04    0.10695E-02   -0.35581E-03  4699   0.266E-02    0.293E-01
RMM:  19    -0.233141267036E+04    0.51612E-02   -0.73401E-03  5141   0.370E-02    0.810E-01
RMM:  20    -0.233141315606E+04   -0.48570E-03   -0.40885E-04  3407   0.107E-02    0.772E-01
RMM:  21    -0.233141307732E+04    0.78744E-04   -0.64693E-05  2927   0.348E-03    0.775E-01
RMM:  22    -0.233141300425E+04    0.73064E-04   -0.52587E-06  2690   0.219E-03    0.781E-01
RMM:  23    -0.233141323173E+04   -0.22748E-03   -0.29125E-05  2541   0.297E-03    0.744E-01
RMM:  24    -0.233141389646E+04   -0.66474E-03   -0.15281E-04  3051   0.560E-03    0.666E-01
RMM:  25    -0.233141489876E+04   -0.10023E-02   -0.29016E-04  3388   0.720E-03    0.560E-01
RMM:  26    -0.233141629462E+04   -0.13959E-02   -0.53485E-04  3578   0.966E-03    0.415E-01
RMM:  27    -0.233141740976E+04   -0.11151E-02   -0.55914E-04  3883   0.101E-02    0.287E-01
RMM:  28    -0.233141824620E+04   -0.83643E-03   -0.58461E-04  3807   0.104E-02    0.181E-01
RMM:  29    -0.233141878032E+04   -0.53413E-03   -0.51112E-04  3774   0.998E-03    0.114E-01
RMM:  30    -0.233141913446E+04   -0.35414E-03   -0.44734E-04  3731   0.936E-03    0.804E-02
RMM:  31    -0.233141938461E+04   -0.25015E-03   -0.33496E-04  3531   0.859E-03    0.746E-02
RMM:  32    -0.233141959134E+04   -0.20673E-03   -0.23569E-04  3319   0.748E-03    0.859E-02
RMM:  33    -0.233141979785E+04   -0.20651E-03   -0.18421E-04  3209   0.667E-03    0.108E-01
RMM:  34    -0.233141988673E+04   -0.88883E-04   -0.49349E-05  2893   0.449E-03    0.121E-01
RMM:  35    -0.233141987233E+04    0.14404E-04   -0.52919E-06  2569   0.243E-03    0.123E-01
RMM:  36    -0.233141958804E+04    0.28429E-03   -0.18162E-04  2972   0.576E-03    0.969E-02
RMM:  37    -0.233141906390E+04    0.52414E-03   -0.10464E-03  4246   0.135E-02    0.110E-01
RMM:  38    -0.233141834604E+04    0.71785E-03   -0.13655E-03  4148   0.159E-02    0.214E-01
RMM:  39    -0.233141815995E+04    0.18610E-03   -0.26148E-04  3167   0.668E-03    0.240E-01
RMM:  40    -0.233141775972E+04    0.40022E-03   -0.15850E-04  3186   0.572E-03    0.291E-01
RMM:  41    -0.233141732129E+04    0.43843E-03   -0.12436E-04  3119   0.574E-03    0.343E-01
RMM:  42    -0.233141736953E+04   -0.48237E-04   -0.10284E-05  2650   0.285E-03    0.336E-01
RMM:  43    -0.233141746003E+04   -0.90503E-04   -0.43033E-06  2287   0.150E-03    0.324E-01
RMM:  44    -0.233141765172E+04   -0.19169E-03   -0.20850E-05  2519   0.230E-03    0.297E-01
RMM:  45    -0.233141806531E+04   -0.41359E-03   -0.12164E-04  2983   0.469E-03    0.239E-01
RMM:  46    -0.233141851798E+04   -0.45267E-03   -0.25047E-04  3320   0.642E-03    0.175E-01
RMM:  47    -0.233141890666E+04   -0.38868E-03   -0.33614E-04  3340   0.741E-03    0.122E-01
RMM:  48    -0.233141894939E+04   -0.42733E-04   -0.42637E-05  2820   0.358E-03    0.122E-01
RMM:  49    -0.233141898190E+04   -0.32510E-04   -0.97809E-06  2533   0.188E-03    0.120E-01
RMM:  50    -0.233141901319E+04   -0.31286E-04   -0.42803E-06  2516   0.174E-03    0.118E-01
RMM:  51    -0.233141904305E+04   -0.29863E-04   -0.39111E-06  2348   0.142E-03    0.116E-01
RMM:  52    -0.233141906148E+04   -0.18426E-04   -0.20946E-06  2162   0.129E-03    0.116E-01
RMM:  53    -0.233141914962E+04   -0.88143E-04   -0.26170E-05  2800   0.243E-03    0.108E-01
RMM:  54    -0.233141921055E+04   -0.60931E-04   -0.17586E-05  2640   0.213E-03    0.105E-01
RMM:  55    -0.233141928931E+04   -0.78761E-04   -0.29186E-05  2787   0.274E-03    0.103E-01
RMM:  56    -0.233141939816E+04   -0.10885E-03   -0.52164E-05  2946   0.334E-03    0.103E-01
RMM:  57    -0.233141955160E+04   -0.15344E-03   -0.98889E-05  3013   0.451E-03    0.111E-01
RMM:  58    -0.233141966209E+04   -0.11049E-03   -0.57794E-05  2877   0.384E-03    0.123E-01
RMM:  59    -0.233141982114E+04   -0.15905E-03   -0.81368E-05  3023   0.462E-03    0.144E-01
RMM:  60    -0.233141997071E+04   -0.14957E-03   -0.61786E-05  2932   0.412E-03    0.167E-01
RMM:  61    -0.233142007298E+04   -0.10227E-03   -0.33840E-05  2774   0.348E-03    0.184E-01
RMM:  62    -0.233142012270E+04   -0.49723E-04   -0.95305E-06  2617   0.221E-03    0.195E-01
RMM:  63    -0.233142010810E+04    0.14606E-04   -0.12371E-06  2164   0.157E-03    0.193E-01
RMM:  64    -0.233142013359E+04   -0.25491E-04   -0.12210E-06  1705   0.990E-04    0.198E-01
RMM:  65    -0.233142013578E+04   -0.21919E-05   -0.44650E-07  1616   0.970E-04
  16 F= -.23529227E+04 E0= -.23529140E+04  d E =-.249013E-01  mag=     3.7516
       N       E                     dE             d eps       ncg     rms          rms(c)
DAV:   1    -0.233142027841E+04   -0.14483E-03   -0.39752E-01  4528   0.525E-01    0.291E-01
RMM:   2    -0.233142824188E+04   -0.79635E-02   -0.74088E-02  6537   0.126E-01    0.416E-01
RMM:   3    -0.233142913184E+04   -0.88996E-03   -0.81930E-03  5023   0.480E-02    0.494E-01
RMM:   4    -0.233142844157E+04    0.69027E-03   -0.20112E-03  4471   0.186E-02    0.400E-01
RMM:   5    -0.233142783728E+04    0.60429E-03   -0.15198E-03  4632   0.174E-02    0.280E-01
RMM:   6    -0.233142724910E+04    0.58818E-03   -0.57534E-04  3917   0.116E-02    0.180E-01
RMM:   7    -0.233142704975E+04    0.19935E-03   -0.29931E-04  3370   0.859E-03    0.188E-01
RMM:   8    -0.233142668481E+04    0.36494E-03   -0.33622E-04  3831   0.942E-03    0.141E-01
RMM:   9    -0.233142629430E+04    0.39050E-03   -0.41950E-04  4013   0.995E-03    0.162E-01
RMM:  10    -0.233142595945E+04    0.33485E-03   -0.21740E-04  3308   0.773E-03    0.177E-01
RMM:  11    -0.233142623445E+04   -0.27500E-03   -0.72479E-05  2950   0.533E-03    0.155E-01
RMM:  12    -0.233142716224E+04   -0.92778E-03   -0.17204E-03  4346   0.179E-02    0.145E-01
RMM:  13    -0.233142907519E+04   -0.19130E-02   -0.30794E-03  4582   0.245E-02    0.417E-01
RMM:  14    -0.233142792890E+04    0.11463E-02   -0.41723E-04  3605   0.113E-02    0.262E-01
RMM:  15    -0.233142777715E+04    0.15176E-03   -0.79948E-05  2902   0.537E-03    0.247E-01
RMM:  16    -0.233142730943E+04    0.46772E-03   -0.33600E-04  3698   0.816E-03    0.191E-01
RMM:  17    -0.233142689112E+04    0.41831E-03   -0.51707E-04  3742   0.103E-02    0.161E-01
RMM:  18    -0.233142663665E+04    0.25447E-03   -0.35201E-04  3507   0.841E-03    0.158E-01
RMM:  19    -0.233142640619E+04    0.23046E-03   -0.23047E-04  3280   0.721E-03    0.169E-01
RMM:  20    -0.233142627205E+04    0.13415E-03   -0.84146E-05  2979   0.523E-03    0.182E-01
RMM:  21    -0.233142674144E+04   -0.46939E-03   -0.46979E-04  3413   0.950E-03    0.149E-01
RMM:  22    -0.233142776286E+04   -0.10214E-02   -0.21624E-03  4509   0.198E-02    0.257E-01
RMM:  23    -0.233142754542E+04    0.21744E-03   -0.10211E-04  2960   0.761E-03    0.228E-01
RMM:  24    -0.233142705432E+04    0.49110E-03   -0.37526E-04  3708   0.902E-03    0.175E-01
RMM:  25    -0.233142663050E+04    0.42382E-03   -0.67438E-04  3998   0.116E-02    0.168E-01
RMM:  26    -0.233142580545E+04    0.82505E-03   -0.16847E-03  4401   0.171E-02    0.267E-01
RMM:  27    -0.233142570997E+04    0.95478E-04   -0.17949E-04  3052   0.708E-03    0.279E-01
RMM:  28    -0.233142596511E+04   -0.25514E-03   -0.46189E-05  2747   0.393E-03    0.244E-01
RMM:  29    -0.233142586593E+04    0.99186E-04   -0.11440E-05  2520   0.205E-03    0.258E-01
RMM:  30    -0.233142591404E+04   -0.48112E-04   -0.22264E-06  2188   0.128E-03    0.252E-01
RMM:  31    -0.233142635915E+04   -0.44511E-03   -0.31450E-04  3439   0.741E-03    0.193E-01
RMM:  32    -0.233142688771E+04   -0.52856E-03   -0.93364E-04  4159   0.129E-02    0.164E-01
RMM:  33    -0.233142715102E+04   -0.26330E-03   -0.39528E-04  3398   0.858E-03    0.184E-01
RMM:  34    -0.233142734514E+04   -0.19412E-03   -0.15077E-04  3096   0.533E-03    0.210E-01
RMM:  35    -0.233142738899E+04   -0.43850E-04   -0.21515E-05  2751   0.336E-03    0.218E-01
RMM:  36    -0.233142739112E+04   -0.21346E-05   -0.32485E-06  2472   0.163E-03
  17 F= -.23529301E+04 E0= -.23529221E+04  d E =-.742221E-02  mag=     3.7937
       N       E                     dE             d eps       ncg     rms          rms(c)
DAV:   1    -0.233137954796E+04    0.47841E-01   -0.33464E+00  4512   0.147E+00    0.622E-01
RMM:   2    -0.233144251033E+04   -0.62962E-01   -0.65241E-01  6630   0.360E-01    0.597E-01
RMM:   3    -0.233144885630E+04   -0.63460E-02   -0.73126E-02  6120   0.136E-01    0.817E-01
RMM:   4    -0.233144869211E+04    0.16418E-03   -0.73701E-03  4431   0.267E-02    0.802E-01
RMM:   5    -0.233144809463E+04    0.59749E-03   -0.29984E-03  4913   0.244E-02    0.559E-01
RMM:   6    -0.233144571804E+04    0.23766E-02   -0.29855E-03  5052   0.254E-02    0.285E-01
RMM:   7    -0.233144541244E+04    0.30560E-03   -0.17633E-03  4975   0.176E-02    0.310E-01
RMM:   8    -0.233144455025E+04    0.86219E-03   -0.11199E-03  4421   0.170E-02    0.171E-01
RMM:   9    -0.233144375930E+04    0.79095E-03   -0.14928E-03  4666   0.185E-02    0.190E-01
RMM:  10    -0.233144326852E+04    0.49078E-03   -0.41174E-04  3714   0.115E-02    0.230E-01
RMM:  11    -0.233144369071E+04   -0.42219E-03   -0.10618E-04  3058   0.549E-03    0.190E-01
RMM:  12    -0.233144452287E+04   -0.83216E-03   -0.13004E-03  4208   0.157E-02    0.127E-01
RMM:  13    -0.233144540568E+04   -0.88281E-03   -0.17805E-03  4280   0.192E-02    0.218E-01
RMM:  14    -0.233144600481E+04   -0.59913E-03   -0.64850E-04  3914   0.111E-02    0.313E-01
RMM:  15    -0.233144515710E+04    0.84771E-03   -0.41018E-04  3652   0.963E-03    0.188E-01
RMM:  16    -0.233144482877E+04    0.32832E-03   -0.27415E-04  3256   0.813E-03    0.152E-01
RMM:  17    -0.233144463724E+04    0.19153E-03   -0.18313E-04  3154   0.647E-03    0.140E-01
RMM:  18    -0.233144439197E+04    0.24527E-03   -0.23465E-04  3380   0.724E-03    0.138E-01
RMM:  19    -0.233144420491E+04    0.18705E-03   -0.15355E-04  3144   0.627E-03    0.147E-01
RMM:  20    -0.233144392793E+04    0.27698E-03   -0.21707E-04  3330   0.700E-03    0.173E-01
RMM:  21    -0.233144411782E+04   -0.18990E-03   -0.49501E-05  2802   0.449E-03    0.151E-01
RMM:  22    -0.233144447791E+04   -0.36008E-03   -0.36836E-04  3527   0.824E-03    0.126E-01
RMM:  23    -0.233144518406E+04   -0.70616E-03   -0.12749E-03  4319   0.151E-02    0.181E-01
RMM:  24    -0.233144562304E+04   -0.43898E-03   -0.44325E-04  3458   0.965E-03    0.249E-01
RMM:  25    -0.233144514718E+04    0.47586E-03   -0.15297E-04  3019   0.632E-03    0.186E-01
RMM:  26    -0.233144485521E+04    0.29197E-03   -0.19435E-04  3134   0.634E-03    0.153E-01
RMM:  27    -0.233144469161E+04    0.16360E-03   -0.12203E-04  2991   0.508E-03    0.142E-01
RMM:  28    -0.233144441585E+04    0.27576E-03   -0.29202E-04  3407   0.731E-03    0.141E-01
RMM:  29    -0.233144417681E+04    0.23904E-03   -0.22608E-04  3251   0.694E-03    0.156E-01
RMM:  30    -0.233144401510E+04    0.16172E-03   -0.11748E-04  3038   0.535E-03    0.172E-01
RMM:  31    -0.233144399915E+04    0.15943E-04   -0.13870E-05  2732   0.302E-03    0.172E-01
RMM:  32    -0.233144398856E+04    0.10591E-04   -0.27586E-06  2474   0.168E-03    0.174E-01
RMM:  33    -0.233144398483E+04    0.37330E-05   -0.87345E-07  2293   0.134E-03
  18 F= -.23529472E+04 E0= -.23529434E+04  d E =-.170890E-01  mag=     3.9596
       N       E                     dE             d eps       ncg     rms          rms(c)
DAV:   1    -0.233142905691E+04    0.14932E-01   -0.14721E+00  4512   0.988E-01    0.413E-01
RMM:   2    -0.233145476434E+04   -0.25707E-01   -0.26823E-01  6623   0.237E-01    0.353E-01
RMM:   3    -0.233145721487E+04   -0.24505E-02   -0.29608E-02  5758   0.888E-02    0.362E-01
RMM:   4    -0.233145669287E+04    0.52200E-03   -0.31775E-03  4512   0.205E-02    0.214E-01
RMM:   5    -0.233145681771E+04   -0.12483E-03   -0.63268E-04  4156   0.122E-02    0.241E-01
RMM:   6    -0.233145682984E+04   -0.12133E-04   -0.41897E-04  3976   0.105E-02    0.261E-01
RMM:   7    -0.233145673395E+04    0.95889E-04   -0.67042E-04  4010   0.119E-02    0.256E-01
RMM:   8    -0.233145636844E+04    0.36551E-03   -0.59354E-04  3844   0.114E-02    0.167E-01
RMM:   9    -0.233145571786E+04    0.65058E-03   -0.17833E-03  4696   0.185E-02    0.224E-01
RMM:  10    -0.233145527425E+04    0.44360E-03   -0.50786E-04  3788   0.114E-02    0.282E-01
RMM:  11    -0.233145631674E+04   -0.10425E-02   -0.16204E-03  4184   0.178E-02    0.154E-01
RMM:  12    -0.233145638441E+04   -0.67670E-04   -0.22984E-04  3173   0.935E-03    0.136E-01
RMM:  13    -0.233145663658E+04   -0.25217E-03   -0.47283E-04  4015   0.933E-03    0.144E-01
RMM:  14    -0.233145658086E+04    0.55713E-04   -0.21415E-05  2859   0.432E-03    0.141E-01
RMM:  15    -0.233145654212E+04    0.38745E-04   -0.93447E-06  2478   0.189E-03    0.141E-01
RMM:  16    -0.233145621661E+04    0.32551E-03   -0.41204E-04  3697   0.880E-03    0.154E-01
RMM:  17    -0.233145618533E+04    0.31274E-04   -0.45555E-05  2741   0.429E-03    0.156E-01
RMM:  18    -0.233145604990E+04    0.13544E-03   -0.67907E-05  2914   0.348E-03    0.165E-01
RMM:  19    -0.233145632670E+04   -0.27680E-03   -0.14025E-04  2935   0.564E-03    0.154E-01
RMM:  20    -0.233145708835E+04   -0.76165E-03   -0.11185E-03  4240   0.138E-02    0.236E-01
RMM:  21    -0.233145632063E+04    0.76772E-03   -0.10376E-03  4440   0.137E-02    0.168E-01
RMM:  22    -0.233145316250E+04    0.31581E-02   -0.66270E-03  5010   0.342E-02    0.502E-01
RMM:  23    -0.233145429504E+04   -0.11325E-02   -0.27005E-04  3326   0.110E-02    0.383E-01
RMM:  24    -0.233145323932E+04    0.10557E-02   -0.28905E-04  3366   0.692E-03    0.484E-01
RMM:  25    -0.233145430420E+04   -0.10649E-02   -0.25998E-04  3278   0.760E-03    0.366E-01
RMM:  26    -0.233145603292E+04   -0.17287E-02   -0.24880E-03  4523   0.210E-02    0.148E-01
RMM:  27    -0.233145671187E+04   -0.67895E-03   -0.18409E-03  4168   0.198E-02    0.136E-01
RMM:  28    -0.233145711465E+04   -0.40277E-03   -0.72937E-04  4071   0.110E-02    0.188E-01
RMM:  29    -0.233145726973E+04   -0.15508E-03   -0.12917E-04  2970   0.586E-03    0.215E-01
RMM:  30    -0.233145725471E+04    0.15013E-04   -0.11127E-05  2689   0.283E-03    0.216E-01
RMM:  31    -0.233145722132E+04    0.33397E-04   -0.21591E-06  2490   0.168E-03    0.212E-01
RMM:  32    -0.233145730209E+04   -0.80770E-04   -0.72314E-06  2507   0.162E-03    0.223E-01
RMM:  33    -0.233145702579E+04    0.27629E-03   -0.88029E-05  2766   0.418E-03    0.187E-01
RMM:  34    -0.233145645134E+04    0.57445E-03   -0.80926E-04  4228   0.118E-02    0.148E-01
RMM:  35    -0.233145570950E+04    0.74184E-03   -0.15075E-03  4263   0.168E-02    0.215E-01
RMM:  36    -0.233145529636E+04    0.41314E-03   -0.53012E-04  3672   0.982E-03    0.270E-01
RMM:  37    -0.233145512395E+04    0.17240E-03   -0.11194E-04  2964   0.490E-03    0.290E-01
RMM:  38    -0.233145510190E+04    0.22050E-04   -0.95353E-06  2619   0.266E-03    0.292E-01
RMM:  39    -0.233145509896E+04    0.29365E-05   -0.16568E-06  2419   0.153E-03
  19 F= -.23529586E+04 E0= -.23529563E+04  d E =-.114228E-01  mag=     4.0543
       N       E                     dE             d eps       ncg     rms          rms(c)
DAV:   1    -0.233145718914E+04   -0.20872E-02   -0.10458E-01  4544   0.279E-01    0.300E-01
RMM:   2    -0.233145947101E+04   -0.22819E-02   -0.17575E-02  6408   0.707E-02    0.227E-01
RMM:   3    -0.233146003402E+04   -0.56301E-03   -0.27697E-03  4834   0.299E-02    0.292E-01
RMM:   4    -0.233145970538E+04    0.32864E-03   -0.82560E-04  4371   0.133E-02    0.169E-01
RMM:   5    -0.233146001272E+04   -0.30734E-03   -0.10573E-03  4544   0.159E-02    0.242E-01
RMM:   6    -0.233145982996E+04    0.18277E-03   -0.13502E-03  4547   0.180E-02    0.301E-01
RMM:   7    -0.233145988618E+04   -0.56227E-04   -0.37840E-03  4553   0.271E-02    0.231E-01
RMM:   8    -0.233145890234E+04    0.98384E-03   -0.26792E-03  4415   0.239E-02    0.257E-01
RMM:   9    -0.233145767062E+04    0.12317E-02   -0.16345E-03  4656   0.181E-02    0.422E-01
RMM:  10    -0.233145947161E+04   -0.18010E-02   -0.19211E-03  4357   0.196E-02    0.185E-01
RMM:  11    -0.233145974603E+04   -0.27442E-03   -0.83343E-04  3968   0.152E-02    0.116E-01
RMM:  12    -0.233145998517E+04   -0.23914E-03   -0.62547E-04  4146   0.114E-02    0.110E-01
RMM:  13    -0.233146030694E+04   -0.32176E-03   -0.40719E-04  3678   0.100E-02    0.148E-01
RMM:  14    -0.233146042240E+04   -0.11546E-03   -0.10791E-04  3049   0.574E-03    0.169E-01
RMM:  15    -0.233145998834E+04    0.43406E-03   -0.72438E-04  3819   0.120E-02    0.113E-01
RMM:  16    -0.233145906769E+04    0.92065E-03   -0.25246E-03  4559   0.220E-02    0.221E-01
RMM:  17    -0.233145801636E+04    0.10513E-02   -0.12881E-03  4095   0.160E-02    0.357E-01
RMM:  18    -0.233145796744E+04    0.48921E-04   -0.15783E-04  3028   0.516E-03    0.361E-01
RMM:  19    -0.233145804514E+04   -0.77698E-04   -0.93644E-06  2671   0.286E-03    0.351E-01
RMM:  20    -0.233145825895E+04   -0.21381E-03   -0.21818E-05  2590   0.242E-03    0.322E-01
RMM:  21    -0.233145909258E+04   -0.83363E-03   -0.51475E-04  3689   0.954E-03    0.202E-01
RMM:  22    -0.233145957435E+04   -0.48176E-03   -0.51099E-04  3633   0.998E-03    0.129E-01
RMM:  23    -0.233145987770E+04   -0.30335E-03   -0.41434E-04  3615   0.845E-03    0.911E-02
RMM:  24    -0.233146006788E+04   -0.19018E-03   -0.23387E-04  3183   0.699E-03    0.769E-02
RMM:  25    -0.233146019253E+04   -0.12464E-03   -0.13604E-04  3032   0.592E-03    0.726E-02
RMM:  26    -0.233146022629E+04   -0.33764E-04   -0.39279E-05  2819   0.390E-03    0.727E-02
RMM:  27    -0.233146021032E+04    0.15966E-04   -0.78007E-06  2608   0.242E-03    0.735E-02
RMM:  28    -0.233146021347E+04   -0.31484E-05   -0.12279E-06  2278   0.141E-03
  20 F= -.23529638E+04 E0= -.23529581E+04  d E =-.522359E-02  mag=     3.8359
       N       E                     dE             d eps       ncg     rms          rms(c)
DAV:   1    -0.233133924387E+04    0.12097E+00   -0.78956E+00  4512   0.229E+00    0.861E-01
RMM:   2    -0.233147365654E+04   -0.13441E+00   -0.14294E+00  6633   0.555E-01    0.642E-01
RMM:   3    -0.233148714688E+04   -0.13490E-01   -0.15929E-01  6211   0.205E-01    0.637E-01
RMM:   4    -0.233148488432E+04    0.22626E-02   -0.16252E-02  5710   0.463E-02    0.387E-01
RMM:   5    -0.233148480745E+04    0.76876E-04   -0.30602E-03  5248   0.243E-02    0.394E-01
RMM:   6    -0.233148424773E+04    0.55972E-03   -0.15634E-03  4751   0.203E-02    0.361E-01
RMM:   7    -0.233148413604E+04    0.11169E-03   -0.13942E-04  3167   0.752E-03    0.339E-01
RMM:   8    -0.233148393873E+04    0.19731E-03   -0.18080E-03  4797   0.191E-02    0.344E-01
RMM:   9    -0.233148323478E+04    0.70395E-03   -0.10338E-03  4343   0.156E-02    0.181E-01
RMM:  10    -0.233148277296E+04    0.46182E-03   -0.13750E-03  4720   0.165E-02    0.193E-01
RMM:  11    -0.233148218265E+04    0.59032E-03   -0.87499E-04  4064   0.133E-02    0.240E-01
RMM:  12    -0.233148283975E+04   -0.65710E-03   -0.53806E-04  3951   0.106E-02    0.166E-01
RMM:  13    -0.233148319413E+04   -0.35438E-03   -0.72423E-04  4001   0.128E-02    0.124E-01
RMM:  14    -0.233148376721E+04   -0.57308E-03   -0.13585E-03  4373   0.166E-02    0.190E-01
RMM:  15    -0.233148398987E+04   -0.22266E-03   -0.25976E-04  3229   0.835E-03    0.234E-01
RMM:  16    -0.233148364859E+04    0.34128E-03   -0.10302E-04  2957   0.566E-03    0.164E-01
RMM:  17    -0.233148319547E+04    0.45312E-03   -0.64204E-04  3966   0.110E-02    0.108E-01
RMM:  18    -0.233148300811E+04    0.18735E-03   -0.29870E-04  3257   0.863E-03    0.107E-01
RMM:  19    -0.233148281882E+04    0.18930E-03   -0.26570E-04  3518   0.697E-03    0.121E-01
RMM:  20    -0.233148267165E+04    0.14716E-03   -0.99278E-05  3015   0.525E-03    0.134E-01
RMM:  21    -0.233148263550E+04    0.36153E-04   -0.21243E-05  2782   0.307E-03    0.137E-01
RMM:  22    -0.233148268803E+04   -0.52530E-04   -0.49049E-06  2481   0.195E-03    0.133E-01
RMM:  23    -0.233148309178E+04   -0.40375E-03   -0.52266E-04  3650   0.955E-03    0.111E-01
RMM:  24    -0.233148366997E+04   -0.57819E-03   -0.11209E-03  4196   0.146E-02    0.181E-01
RMM:  25    -0.233148334666E+04    0.32331E-03   -0.16111E-04  3129   0.689E-03    0.138E-01
RMM:  26    -0.233148332676E+04    0.19906E-04   -0.13044E-05  2604   0.306E-03    0.137E-01
RMM:  27    -0.233148319816E+04    0.12859E-03   -0.81589E-05  2924   0.413E-03    0.134E-01
RMM:  28    -0.233148285112E+04    0.34704E-03   -0.55705E-04  3997   0.970E-03    0.151E-01
RMM:  29    -0.233148234234E+04    0.50878E-03   -0.84698E-04  3876   0.125E-02    0.224E-01
RMM:  30    -0.233148232278E+04    0.19558E-04   -0.84926E-05  2891   0.446E-03    0.225E-01
RMM:  31    -0.233148237678E+04   -0.53994E-04   -0.83700E-06  2568   0.218E-03    0.221E-01
RMM:  32    -0.233148235211E+04    0.24663E-04   -0.27724E-06  2320   0.136E-03    0.226E-01
RMM:  33    -0.233148230545E+04    0.46663E-04   -0.36258E-06  2234   0.132E-03    0.230E-01
RMM:  34    -0.233148240823E+04   -0.10278E-03   -0.10108E-05  2202   0.151E-03    0.220E-01
RMM:  35    -0.233148279919E+04   -0.39096E-03   -0.28318E-04  3341   0.712E-03    0.183E-01
RMM:  36    -0.233148318879E+04   -0.38960E-03   -0.59490E-04  3937   0.104E-02    0.180E-01
RMM:  37    -0.233148334150E+04   -0.15271E-03   -0.18030E-04  3071   0.568E-03    0.197E-01
RMM:  38    -0.233148333765E+04    0.38467E-05   -0.17225E-05  2633   0.273E-03
  21 F= -.23529877E+04 E0= -.23529810E+04  d E =-.238650E-01  mag=     3.8565
       N       E                     dE             d eps       ncg     rms          rms(c)
DAV:   1    -0.233142825129E+04    0.55090E-01   -0.24024E+00  4512   0.126E+00    0.546E-01
RMM:   2    -0.233147124967E+04   -0.42998E-01   -0.44390E-01  6623   0.302E-01    0.535E-01
RMM:   3    -0.233147468717E+04   -0.34375E-02   -0.50254E-02  6014   0.115E-01    0.543E-01
RMM:   4    -0.233147452142E+04    0.16575E-03   -0.52879E-03  4660   0.251E-02    0.563E-01
RMM:   5    -0.233147469270E+04   -0.17128E-03   -0.20369E-03  4584   0.201E-02    0.494E-01
RMM:   6    -0.233147283350E+04    0.18592E-02   -0.28211E-03  4985   0.254E-02    0.261E-01
RMM:   7    -0.233147222482E+04    0.60868E-03   -0.16066E-03  4655   0.180E-02    0.251E-01
RMM:   8    -0.233147153583E+04    0.68899E-03   -0.15732E-03  4546   0.187E-02    0.241E-01
RMM:   9    -0.233147000704E+04    0.15288E-02   -0.20983E-03  5058   0.211E-02    0.367E-01
RMM:  10    -0.233147009151E+04   -0.84472E-04   -0.12219E-04  3075   0.704E-03    0.358E-01
RMM:  11    -0.233147020058E+04   -0.10907E-03   -0.20630E-04  3363   0.739E-03    0.278E-01
RMM:  12    -0.233147153697E+04   -0.13364E-02   -0.17643E-03  4333   0.188E-02    0.110E-01
RMM:  13    -0.233147205419E+04   -0.51722E-03   -0.86680E-04  3967   0.139E-02    0.829E-02
RMM:  14    -0.233147225957E+04   -0.20538E-03   -0.25481E-04  3480   0.750E-03    0.930E-02
RMM:  15    -0.233147245209E+04   -0.19252E-03   -0.14554E-04  3211   0.637E-03    0.111E-01
RMM:  16    -0.233147250887E+04   -0.56778E-04   -0.27687E-05  2894   0.420E-03    0.118E-01
RMM:  17    -0.233147240904E+04    0.99828E-04   -0.20769E-05  2645   0.301E-03    0.117E-01
RMM:  18    -0.233147212576E+04    0.28328E-03   -0.25021E-04  3297   0.691E-03    0.116E-01
RMM:  19    -0.233147185866E+04    0.26710E-03   -0.26237E-04  3273   0.706E-03    0.126E-01
RMM:  20    -0.233147167340E+04    0.18526E-03   -0.13931E-04  3046   0.513E-03    0.138E-01
RMM:  21    -0.233147173596E+04   -0.62554E-04   -0.81490E-06  2605   0.270E-03    0.131E-01
RMM:  22    -0.233147205309E+04   -0.31713E-03   -0.21548E-04  3099   0.627E-03    0.113E-01
RMM:  23    -0.233147274585E+04   -0.69276E-03   -0.11109E-03  4256   0.138E-02    0.167E-01
RMM:  24    -0.233147318245E+04   -0.43660E-03   -0.38813E-04  3373   0.930E-03    0.235E-01
RMM:  25    -0.233147267651E+04    0.50594E-03   -0.18323E-04  3070   0.698E-03    0.172E-01
RMM:  26    -0.233147259622E+04    0.80288E-04   -0.37128E-05  2721   0.361E-03    0.165E-01
RMM:  27    -0.233147231747E+04    0.27875E-03   -0.19594E-04  3250   0.629E-03    0.145E-01
RMM:  28    -0.233147197177E+04    0.34569E-03   -0.37823E-04  3740   0.845E-03    0.144E-01
RMM:  29    -0.233147172742E+04    0.24435E-03   -0.25923E-04  3220   0.714E-03    0.162E-01
RMM:  30    -0.233147170662E+04    0.20806E-04   -0.33660E-05  2779   0.344E-03    0.162E-01
RMM:  31    -0.233147170763E+04   -0.10105E-05   -0.32621E-06  2422   0.170E-03
  22 F= -.23529756E+04 E0= -.23529715E+04  d E =0.120772E-01  mag=     3.9405
       N       E                     dE             d eps       ncg     rms          rms(c)
DAV:   1    -0.233147210218E+04   -0.39557E-03   -0.29074E-01  4544   0.446E-01    0.229E-01
RMM:   2    -0.233147696044E+04   -0.48583E-02   -0.48057E-02  6610   0.108E-01    0.219E-01
RMM:   3    -0.233147742599E+04   -0.46555E-03   -0.52866E-03  4922   0.394E-02    0.228E-01
RMM:   4    -0.233147741677E+04    0.92182E-05   -0.63312E-04  3202   0.944E-03    0.200E-01
RMM:   5    -0.233147741156E+04    0.52153E-05   -0.22597E-05  2927   0.333E-03
  23 F= -.23529815E+04 E0= -.23529747E+04  d E =-.587037E-02  mag=     3.9401
       N       E                     dE             d eps       ncg     rms          rms(c)
DAV:   1    -0.233147728764E+04    0.12913E-03   -0.28015E-03  4792   0.459E-02    0.207E-01
RMM:   2    -0.233147760881E+04   -0.32116E-03   -0.11466E-03  4832   0.163E-02    0.230E-01
RMM:   3    -0.233147761722E+04   -0.84104E-05   -0.10334E-04  2946   0.761E-03    0.232E-01
RMM:   4    -0.233147765507E+04   -0.37853E-04   -0.59923E-05  2936   0.454E-03    0.223E-01
RMM:   5    -0.233147781010E+04   -0.15503E-03   -0.61282E-04  4086   0.110E-02    0.257E-01
RMM:   6    -0.233147733116E+04    0.47894E-03   -0.10291E-03  4265   0.158E-02    0.192E-01
RMM:   7    -0.233147753648E+04   -0.20532E-03   -0.50696E-04  3558   0.122E-02    0.205E-01
RMM:   8    -0.233147751533E+04    0.21152E-04   -0.11324E-04  3010   0.593E-03    0.198E-01
RMM:   9    -0.233147751026E+04    0.50684E-05   -0.20642E-05  2845   0.359E-03
  24 F= -.23529816E+04 E0= -.23529759E+04  d E =-.935783E-04  mag=     3.8628
       N       E                     dE             d eps       ncg     rms          rms(c)
DAV:   1    -0.233147930559E+04   -0.17903E-02   -0.77831E-02  4944   0.237E-01    0.218E-01
RMM:   2    -0.233148156099E+04   -0.22554E-02   -0.14858E-02  6442   0.681E-02    0.326E-01
RMM:   3    -0.233148087679E+04    0.68420E-03   -0.13935E-03  4527   0.199E-02    0.215E-01
RMM:   4    -0.233148100948E+04   -0.13269E-03   -0.22611E-04  3159   0.674E-03    0.253E-01
RMM:   5    -0.233148100386E+04    0.56202E-05   -0.35076E-04  3495   0.892E-03    0.247E-01
RMM:   6    -0.233148047802E+04    0.52583E-03   -0.64044E-04  3720   0.116E-02    0.202E-01
RMM:   7    -0.233148022689E+04    0.25113E-03   -0.32654E-04  3410   0.858E-03    0.154E-01
RMM:   8    -0.233147976616E+04    0.46073E-03   -0.83531E-04  4347   0.129E-02    0.204E-01
RMM:   9    -0.233147923502E+04    0.53114E-03   -0.53660E-04  3880   0.112E-02    0.248E-01
RMM:  10    -0.233148066123E+04   -0.14262E-02   -0.31276E-03  4457   0.243E-02    0.204E-01
RMM:  11    -0.233148122005E+04   -0.55881E-03   -0.10749E-03  3996   0.171E-02    0.278E-01
RMM:  12    -0.233148066458E+04    0.55547E-03   -0.23675E-04  3302   0.806E-03    0.200E-01
RMM:  13    -0.233148014623E+04    0.51834E-03   -0.72926E-04  4060   0.121E-02    0.178E-01
RMM:  14    -0.233147959216E+04    0.55407E-03   -0.85955E-04  3998   0.135E-02    0.219E-01
RMM:  15    -0.233147935351E+04    0.23865E-03   -0.26951E-04  3261   0.711E-03    0.246E-01
RMM:  16    -0.233147966510E+04   -0.31160E-03   -0.89200E-05  2895   0.533E-03    0.213E-01
RMM:  17    -0.233148073665E+04   -0.10715E-02   -0.22932E-03  4569   0.203E-02    0.210E-01
RMM:  18    -0.233148114820E+04   -0.41155E-03   -0.49776E-04  3569   0.116E-02    0.267E-01
RMM:  19    -0.233148071848E+04    0.42972E-03   -0.11399E-04  2973   0.587E-03    0.214E-01
RMM:  20    -0.233147978402E+04    0.93445E-03   -0.16151E-03  4427   0.169E-02    0.194E-01
RMM:  21    -0.233147880419E+04    0.97983E-03   -0.14639E-03  4105   0.176E-02    0.299E-01
RMM:  22    -0.233147853860E+04    0.26559E-03   -0.29173E-04  3342   0.708E-03    0.330E-01
RMM:  23    -0.233147877460E+04   -0.23599E-03   -0.26161E-05  2806   0.391E-03    0.301E-01
RMM:  24    -0.233147955935E+04   -0.78476E-03   -0.57083E-04  3814   0.102E-02    0.207E-01
RMM:  25    -0.233148001264E+04   -0.45329E-03   -0.52287E-04  3640   0.102E-02    0.169E-01
RMM:  26    -0.233148062803E+04   -0.61539E-03   -0.99176E-04  4167   0.131E-02    0.191E-01
RMM:  27    -0.233148110587E+04   -0.47784E-03   -0.44982E-04  3628   0.977E-03    0.252E-01
RMM:  28    -0.233148163998E+04   -0.53411E-03   -0.33418E-04  3510   0.808E-03    0.331E-01
RMM:  29    -0.233148183763E+04   -0.19765E-03   -0.66687E-05  2932   0.494E-03    0.364E-01
RMM:  30    -0.233148179520E+04    0.42428E-04   -0.63161E-06  2633   0.251E-03    0.361E-01
RMM:  31    -0.233148143083E+04    0.36437E-03   -0.60539E-05  2713   0.353E-03    0.312E-01
RMM:  32    -0.233148123898E+04    0.19185E-03   -0.41648E-05  2720   0.311E-03    0.284E-01
RMM:  33    -0.233148114208E+04    0.96900E-04   -0.22080E-05  2590   0.222E-03    0.270E-01
RMM:  34    -0.233148120258E+04   -0.60505E-04   -0.21201E-06  2063   0.141E-03    0.279E-01
RMM:  35    -0.233148116431E+04    0.38274E-04   -0.79665E-07  1182   0.746E-04    0.273E-01
RMM:  36    -0.233148108265E+04    0.81660E-04   -0.57556E-06  2020   0.123E-03    0.260E-01
RMM:  37    -0.233148080356E+04    0.27910E-03   -0.76512E-05  2966   0.379E-03    0.221E-01
RMM:  38    -0.233148055367E+04    0.24989E-03   -0.11185E-04  2999   0.433E-03    0.191E-01
RMM:  39    -0.233148030127E+04    0.25240E-03   -0.16246E-04  3100   0.534E-03    0.173E-01
RMM:  40    -0.233148008768E+04    0.21359E-03   -0.14232E-04  3086   0.514E-03    0.169E-01
RMM:  41    -0.233147972662E+04    0.36107E-03   -0.30274E-04  3388   0.780E-03    0.188E-01
RMM:  42    -0.233147941102E+04    0.31560E-03   -0.22266E-04  3327   0.699E-03    0.218E-01
RMM:  43    -0.233147908766E+04    0.32336E-03   -0.17796E-04  3167   0.638E-03    0.255E-01
RMM:  44    -0.233147878907E+04    0.29859E-03   -0.10363E-04  3054   0.537E-03    0.289E-01
RMM:  45    -0.233147861613E+04    0.17294E-03   -0.44374E-05  2867   0.411E-03    0.309E-01
RMM:  46    -0.233147859937E+04    0.16757E-04   -0.59411E-06  2563   0.222E-03    0.311E-01
RMM:  47    -0.233147863080E+04   -0.31425E-04   -0.11219E-06  2271   0.144E-03    0.307E-01
RMM:  48    -0.233147871120E+04   -0.80405E-04   -0.42019E-06  1978   0.122E-03    0.297E-01
RMM:  49    -0.233147879272E+04   -0.81518E-04   -0.51173E-06  2030   0.130E-03    0.287E-01
RMM:  50    -0.233147901504E+04   -0.22232E-03   -0.39507E-05  2647   0.276E-03    0.260E-01
RMM:  51    -0.233147932914E+04   -0.31410E-03   -0.10759E-04  2990   0.434E-03    0.222E-01
RMM:  52    -0.233147956202E+04   -0.23288E-03   -0.97655E-05  2939   0.411E-03    0.196E-01
RMM:  53    -0.233147963557E+04   -0.73551E-04   -0.25181E-05  2634   0.271E-03    0.188E-01
RMM:  54    -0.233147972074E+04   -0.85164E-04   -0.19196E-05  2673   0.237E-03    0.180E-01
RMM:  55    -0.233147972268E+04   -0.19494E-05   -0.19639E-06  2081   0.168E-03
  25 F= -.23529838E+04 E0= -.23529797E+04  d E =-.226815E-02  mag=     3.9427
       N       E                     dE             d eps       ncg     rms          rms(c)
DAV:   1    -0.233147336996E+04    0.63508E-02   -0.10910E+00  4512   0.871E-01    0.360E-01
RMM:   2    -0.233148935507E+04   -0.15985E-01   -0.16427E-01  6631   0.210E-01    0.344E-01
RMM:   3    -0.233149038070E+04   -0.10256E-02   -0.17437E-02  5600   0.728E-02    0.283E-01
RMM:   4    -0.233149041983E+04   -0.39125E-04   -0.21617E-03  4486   0.187E-02    0.280E-01
RMM:   5    -0.233149043222E+04   -0.12394E-04   -0.35649E-04  3596   0.935E-03    0.297E-01
RMM:   6    -0.233149027295E+04    0.15927E-03   -0.51423E-04  3707   0.107E-02    0.282E-01
[...]
RMM:   6    -0.233172938557E+04    0.11604E-04   -0.29129E-05  2913   0.347E-03    0.944E-03
RMM:   7    -0.233172938609E+04   -0.51576E-06   -0.77994E-06  2670   0.251E-03
 152 F= -.23532312E+04 E0= -.23532312E+04  d E =-.297627E-03  mag=     2.0000
       N       E                     dE             d eps       ncg     rms          rms(c)
DAV:   1    -0.233172941264E+04   -0.27063E-04   -0.24305E-03  4624   0.480E-02    0.170E-02
RMM:   2    -0.233172946174E+04   -0.49107E-04   -0.49585E-04  4551   0.124E-02    0.182E-02
RMM:   3    -0.233172946527E+04   -0.35304E-05   -0.52532E-05  2826   0.546E-03
 153 F= -.23532312E+04 E0= -.23532312E+04  d E =-.475559E-04  mag=     2.0000
       N       E                     dE             d eps       ncg     rms          rms(c)
DAV:   1    -0.233172664924E+04    0.28125E-02   -0.13744E-01  4512   0.324E-01    0.124E-01
RMM:   2    -0.233173019806E+04   -0.35488E-02   -0.33456E-02  6584   0.890E-02    0.188E-01
RMM:   3    -0.233173012322E+04    0.74843E-04   -0.33162E-03  4323   0.305E-02    0.102E-01
RMM:   4    -0.233173003661E+04    0.86605E-04   -0.36474E-04  3056   0.804E-03    0.553E-02
RMM:   5    -0.233173001227E+04    0.24347E-04   -0.48477E-05  2895   0.405E-03    0.364E-02
RMM:   6    -0.233172999505E+04    0.17213E-04   -0.43424E-05  2944   0.414E-03    0.132E-02
RMM:   7    -0.233172999580E+04   -0.75002E-06   -0.15373E-05  2815   0.320E-03
 154 F= -.23532316E+04 E0= -.23532316E+04  d E =-.348237E-03  mag=     2.0000
       N       E                     dE             d eps       ncg     rms          rms(c)
DAV:   1    -0.233172844766E+04    0.15474E-02   -0.51025E-02  4512   0.197E-01    0.747E-02
RMM:   2    -0.233172974671E+04   -0.12991E-02   -0.12240E-02  6318   0.532E-02    0.114E-01
RMM:   3    -0.233172972357E+04    0.23140E-04   -0.12241E-03  3354   0.188E-02    0.613E-02
RMM:   4    -0.233172968860E+04    0.34967E-04   -0.12787E-04  2961   0.559E-03    0.308E-02
RMM:   5    -0.233172968145E+04    0.71537E-05   -0.16871E-05  2586   0.240E-03
 155 F= -.23532314E+04 E0= -.23532314E+04  d E =0.197814E-03  mag=     2.0000
       N       E                     dE             d eps       ncg     rms          rms(c)
DAV:   1    -0.233172920772E+04    0.48089E-03   -0.29071E-02  4528   0.147E-01    0.602E-02
RMM:   2    -0.233172997756E+04   -0.76984E-03   -0.71053E-03  5993   0.408E-02    0.963E-02
RMM:   3    -0.233172994221E+04    0.35355E-04   -0.70467E-04  3196   0.148E-02    0.484E-02
RMM:   4    -0.233172992185E+04    0.20355E-04   -0.78487E-05  2908   0.458E-03    0.232E-02
RMM:   5    -0.233172991668E+04    0.51712E-05   -0.98062E-06  2297   0.182E-03
 156 F= -.23532315E+04 E0= -.23532315E+04  d E =-.156157E-03  mag=     2.0000
       N       E                     dE             d eps       ncg     rms          rms(c)
DAV:   1    -0.233172944609E+04    0.47576E-03   -0.29690E-02  4528   0.150E-01    0.559E-02
RMM:   2    -0.233173018282E+04   -0.73673E-03   -0.70619E-03  5984   0.408E-02    0.803E-02
RMM:   3    -0.233173018525E+04   -0.24242E-05   -0.71392E-04  3165   0.144E-02    0.477E-02
RMM:   4    -0.233173016526E+04    0.19984E-04   -0.74207E-05  2912   0.454E-03    0.243E-02
RMM:   5    -0.233173016194E+04    0.33172E-05   -0.10634E-05  2541   0.203E-03
 157 F= -.23532317E+04 E0= -.23532317E+04  d E =-.159869E-03  mag=     2.0000
       N       E                     dE             d eps       ncg     rms          rms(c)
DAV:   1    -0.233173009532E+04    0.69941E-04   -0.14878E-03  4408   0.375E-02    0.144E-02
RMM:   2    -0.233173012761E+04   -0.32289E-04   -0.28988E-04  4066   0.977E-03    0.224E-02
RMM:   3    -0.233173012569E+04    0.19153E-05   -0.31188E-05  2527   0.468E-03
 158 F= -.23532317E+04 E0= -.23532317E+04  d E =0.270351E-04  mag=     2.0000
       N       E                     dE             d eps       ncg     rms          rms(c)
DAV:   1    -0.233172972008E+04    0.40753E-03   -0.10793E-02  4496   0.916E-02    0.352E-02
RMM:   2    -0.233173000591E+04   -0.28583E-03   -0.26503E-03  5492   0.254E-02    0.559E-02
RMM:   3    -0.233172999326E+04    0.12650E-04   -0.25966E-04  2970   0.928E-03    0.264E-02
RMM:   4    -0.233172998795E+04    0.53129E-05   -0.30380E-05  2630   0.306E-03
 159 F= -.23532316E+04 E0= -.23532316E+04  d E =0.900321E-04  mag=     2.0000
       N       E                     dE             d eps       ncg     rms          rms(c)
DAV:   1    -0.233172998576E+04    0.75027E-05   -0.84883E-05  4760   0.108E-02    0.102E-02
RMM:   2    -0.233172998704E+04   -0.12779E-05   -0.10713E-05  2423   0.281E-03
 160 F= -.23532316E+04 E0= -.23532316E+04  d E =-.192300E-05  mag=     2.0000
       N       E                     dE             d eps       ncg     rms          rms(c)
DAV:   1    -0.233172998709E+04   -0.13347E-05   -0.36367E-03  4384   0.536E-02    0.226E-02
RMM:   2    -0.233173008463E+04   -0.97540E-04   -0.83804E-04  4806   0.147E-02    0.407E-02
RMM:   3    -0.233173007152E+04    0.13115E-04   -0.85795E-05  2750   0.598E-03    0.155E-02
RMM:   4    -0.233173007021E+04    0.13063E-05   -0.10599E-05  2359   0.220E-03
 161 F= -.23532316E+04 E0= -.23532316E+04  d E =-.544465E-04  mag=     2.0000
       N       E                     dE             d eps       ncg     rms          rms(c)
DAV:   1    -0.233173009086E+04   -0.19342E-04   -0.18773E-03  4264   0.402E-02    0.137E-02
RMM:   2    -0.233173013031E+04   -0.39448E-04   -0.38097E-04  4298   0.103E-02    0.187E-02
RMM:   3    -0.233173013129E+04   -0.97767E-06   -0.41928E-05  2458   0.480E-03
 162 F= -.23532317E+04 E0= -.23532317E+04  d E =-.421227E-04  mag=     2.0000
       N       E                     dE             d eps       ncg     rms          rms(c)
DAV:   1    -0.233173007374E+04    0.56570E-04   -0.82280E-04  4232   0.252E-02    0.113E-02
RMM:   2    -0.233173009264E+04   -0.18904E-04   -0.18372E-04  3569   0.681E-03    0.149E-02
RMM:   3    -0.233173009311E+04   -0.46720E-06   -0.22779E-05  2331   0.387E-03
 163 F= -.23532317E+04 E0= -.23532317E+04  d E =0.262943E-04  mag=     2.0000
       N       E                     dE             d eps       ncg     rms          rms(c)
DAV:   1    -0.233173008917E+04    0.34747E-05   -0.36289E-05  3576   0.680E-03    0.207E-03
RMM:   2    -0.233173008963E+04   -0.45937E-06   -0.44158E-06  2345   0.185E-03
 164 F= -.23532317E+04 E0= -.23532317E+04  d E =0.180523E-05  mag=     2.0000
       N       E                     dE             d eps       ncg     rms          rms(c)
DAV:   1    -0.233173010627E+04   -0.17105E-04   -0.21587E-03  4312   0.422E-02    0.155E-02
RMM:   2    -0.233173015617E+04   -0.49895E-04   -0.48812E-04  4422   0.119E-02    0.194E-02
RMM:   3    -0.233173015751E+04   -0.13410E-05   -0.48782E-05  2502   0.526E-03
 165 F= -.23532317E+04 E0= -.23532317E+04  d E =-.421298E-04  mag=     2.0000
       N       E                     dE             d eps       ncg     rms          rms(c)
DAV:   1    -0.233173017209E+04   -0.15926E-04   -0.20176E-04  4296   0.145E-02    0.716E-03
RMM:   2    -0.233173017824E+04   -0.61472E-05   -0.46406E-05  2689   0.425E-03
 166 F= -.23532317E+04 E0= -.23532317E+04  d E =-.152370E-04  mag=     2.0000
       N       E                     dE             d eps       ncg     rms          rms(c)
DAV:   1    -0.233173018433E+04   -0.12238E-04   -0.80811E-05  3968   0.929E-03    0.437E-03
RMM:   2    -0.233173018617E+04   -0.18441E-05   -0.19569E-05  2417   0.329E-03
 167 F= -.23532317E+04 E0= -.23532317E+04  d E =-.611827E-05  mag=     2.0000
       N       E                     dE             d eps       ncg     rms          rms(c)
DAV:   1    -0.233173020228E+04   -0.17951E-04   -0.23828E-04  4232   0.143E-02    0.607E-03
RMM:   2    -0.233173020859E+04   -0.63069E-05   -0.55722E-05  2672   0.437E-03
 168 F= -.23532317E+04 E0= -.23532317E+04  d E =-.141918E-04  mag=     2.0000
       N       E                     dE             d eps       ncg     rms          rms(c)
DAV:   1    -0.233173022528E+04   -0.22997E-04   -0.39396E-04  4200   0.185E-02    0.779E-03
RMM:   2    -0.233173023726E+04   -0.11986E-04   -0.92808E-05  3012   0.554E-03    0.180E-02
RMM:   3    -0.233173023428E+04    0.29827E-05   -0.10409E-05  2298   0.330E-03
 169 F= -.23532318E+04 E0= -.23532318E+04  d E =-.185852E-04  mag=     2.0000
       N       E                     dE             d eps       ncg     rms          rms(c)
DAV:   1    -0.233173024282E+04   -0.55548E-05   -0.51661E-05  3272   0.684E-03    0.434E-03
RMM:   2    -0.233173024471E+04   -0.18907E-05   -0.12989E-05  2360   0.234E-03
 170 F= -.23532318E+04 E0= -.23532318E+04  d E =-.810434E-05  mag=     2.0000
       N       E                     dE             d eps       ncg     rms          rms(c)
DAV:   1    -0.233173024690E+04   -0.40789E-05   -0.87448E-06  2544   0.336E-03    0.234E-03
RMM:   2    -0.233173024719E+04   -0.29391E-06   -0.24442E-06  2053   0.174E-03
 171 F= -.23532318E+04 E0= -.23532318E+04  d E =-.152627E-05  mag=     2.0000
       N       E                     dE             d eps       ncg     rms          rms(c)
DAV:   1    -0.233173026385E+04   -0.16950E-04   -0.69342E-04  4208   0.236E-02    0.922E-03
RMM:   2    -0.233173028117E+04   -0.17324E-04   -0.15883E-04  3395   0.661E-03    0.150E-02
RMM:   3    -0.233173028007E+04    0.11043E-05   -0.17213E-05  2319   0.385E-03
 172 F= -.23532318E+04 E0= -.23532318E+04  d E =-.220394E-04  mag=     2.0000
       N       E                     dE             d eps       ncg     rms          rms(c)
DAV:   1    -0.233173029113E+04   -0.99549E-05   -0.51720E-05  3760   0.761E-03    0.469E-03
RMM:   2    -0.233173029326E+04   -0.21312E-05   -0.13087E-05  2391   0.251E-03
 173 F= -.23532318E+04 E0= -.23532318E+04  d E =-.875673E-05  mag=     2.0000
       N       E                     dE             d eps       ncg     rms          rms(c)
DAV:   1    -0.233173029867E+04   -0.75440E-05   -0.17308E-05  2608   0.468E-03    0.254E-03
RMM:   2    -0.233173029916E+04   -0.48860E-06   -0.44548E-06  2234   0.227E-03
 174 F= -.23532318E+04 E0= -.23532318E+04  d E =-.258720E-05  mag=     2.0000
       N       E                     dE             d eps       ncg     rms          rms(c)
DAV:   1    -0.233173031457E+04   -0.15895E-04   -0.27700E-04  4136   0.145E-02    0.558E-03
RMM:   2    -0.233173032133E+04   -0.67598E-05   -0.69318E-05  2766   0.439E-03
 175 F= -.23532318E+04 E0= -.23532318E+04  d E =-.139036E-04  mag=     2.0000
       N       E                     dE             d eps       ncg     rms          rms(c)
DAV:   1    -0.233173033269E+04   -0.18121E-04   -0.94436E-05  3848   0.945E-03    0.555E-03
RMM:   2    -0.233173033784E+04   -0.51521E-05   -0.27725E-05  2447   0.339E-03
 176 F= -.23532318E+04 E0= -.23532318E+04  d E =-.129448E-04  mag=     2.0000
       N       E                     dE             d eps       ncg     rms          rms(c)
DAV:   1    -0.233173035313E+04   -0.20437E-04   -0.56431E-04  4232   0.227E-02    0.854E-03
RMM:   2    -0.233173036641E+04   -0.13284E-04   -0.11546E-04  3232   0.654E-03    0.163E-02
RMM:   3    -0.233173036483E+04    0.15771E-05   -0.13635E-05  2310   0.397E-03
 177 F= -.23532318E+04 E0= -.23532318E+04  d E =-.161031E-04  mag=     2.0000
       N       E                     dE             d eps       ncg     rms          rms(c)
DAV:   1    -0.233173038225E+04   -0.15835E-04   -0.20052E-04  4256   0.137E-02    0.517E-03
RMM:   2    -0.233173038668E+04   -0.44299E-05   -0.44227E-05  2600   0.400E-03
 178 F= -.23532319E+04 E0= -.23532319E+04  d E =-.150535E-04  mag=     2.0000
       N       E                     dE             d eps       ncg     rms          rms(c)
DAV:   1    -0.233173039807E+04   -0.15822E-04   -0.11325E-04  4176   0.109E-02    0.637E-03
RMM:   2    -0.233173040436E+04   -0.62976E-05   -0.28414E-05  2482   0.341E-03
 179 F= -.23532319E+04 E0= -.23532319E+04  d E =-.131831E-04  mag=     2.0000
       N       E                     dE             d eps       ncg     rms          rms(c)
DAV:   1    -0.233173041083E+04   -0.12767E-04   -0.86678E-05  3888   0.926E-03    0.375E-03
RMM:   2    -0.233173041251E+04   -0.16724E-05   -0.16960E-05  2381   0.305E-03
 180 F= -.23532319E+04 E0= -.23532319E+04  d E =-.377422E-05  mag=     2.0000
       N       E                     dE             d eps       ncg     rms          rms(c)
DAV:   1    -0.233173042662E+04   -0.15787E-04   -0.23832E-04  4208   0.142E-02    0.658E-03
RMM:   2    -0.233173043494E+04   -0.83201E-05   -0.56967E-05  2702   0.431E-03
 181 F= -.23532319E+04 E0= -.23532319E+04  d E =-.171696E-04  mag=     2.0000
       N       E                     dE             d eps       ncg     rms          rms(c)
DAV:   1    -0.233173044572E+04   -0.19101E-04   -0.14689E-04  4360   0.119E-02    0.516E-03
RMM:   2    -0.233173044967E+04   -0.39447E-05   -0.32217E-05  2489   0.365E-03
 182 F= -.23532319E+04 E0= -.23532319E+04  d E =-.865359E-05  mag=     2.0000
       N       E                     dE             d eps       ncg     rms          rms(c)
DAV:   1    -0.233173046888E+04   -0.23160E-04   -0.36429E-04  4208   0.179E-02    0.711E-03
RMM:   2    -0.233173047772E+04   -0.88409E-05   -0.75414E-05  2827   0.524E-03
 183 F= -.23532319E+04 E0= -.23532319E+04  d E =-.170325E-04  mag=     2.0000
       N       E                     dE             d eps       ncg     rms          rms(c)
DAV:   1    -0.233173049699E+04   -0.28104E-04   -0.45726E-04  4208   0.202E-02    0.883E-03
RMM:   2    -0.233173051017E+04   -0.13180E-04   -0.97603E-05  3065   0.600E-03    0.208E-02
RMM:   3    -0.233173050625E+04    0.39134E-05   -0.10486E-05  2312   0.348E-03
 184 F= -.23532319E+04 E0= -.23532319E+04  d E =-.177738E-04  mag=     2.0000
       N       E                     dE             d eps       ncg     rms          rms(c)
DAV:   1    -0.233173050027E+04    0.98946E-05   -0.20802E-05  2840   0.491E-03    0.321E-03
RMM:   2    -0.233173050064E+04   -0.36888E-06   -0.33381E-06  2276   0.186E-03
 185 F= -.23532319E+04 E0= -.23532319E+04  d E =0.115001E-05  mag=     2.0000
       N       E                     dE             d eps       ncg     rms          rms(c)
DAV:   1    -0.233173049811E+04    0.21663E-05   -0.40990E-06  2392   0.260E-03    0.266E-03
RMM:   2    -0.233173049897E+04   -0.86162E-06   -0.18215E-06  2022   0.169E-03
 186 F= -.23532319E+04 E0= -.23532319E+04  d E =0.104824E-05  mag=     2.0000
       N       E                     dE             d eps       ncg     rms          rms(c)
DAV:   1    -0.233173049810E+04    0.91095E-08   -0.20996E-06  2288   0.169E-03    0.127E-03
RMM:   2    -0.233173049823E+04   -0.13255E-06   -0.26158E-07   820   0.588E-04
 187 F= -.23532319E+04 E0= -.23532319E+04  d E =0.552554E-06  mag=     2.0000
       N       E                     dE             d eps       ncg     rms          rms(c)
DAV:   1    -0.233173049380E+04    0.43000E-05   -0.20007E-04  4200   0.150E-02    0.519E-03
RMM:   2    -0.233173049874E+04   -0.49452E-05   -0.38509E-05  2645   0.395E-03
 188 F= -.23532319E+04 E0= -.23532319E+04  d E =0.101998E-05  mag=     2.0000
       N       E                     dE             d eps       ncg     rms          rms(c)
DAV:   1    -0.233173049327E+04    0.52773E-06   -0.27939E-04  4248   0.186E-02    0.666E-03
RMM:   2    -0.233173050197E+04   -0.87033E-05   -0.44497E-05  2816   0.503E-03
 189 F= -.23532319E+04 E0= -.23532319E+04  d E =0.142919E-05  mag=     2.0000
       N       E                     dE             d eps       ncg     rms          rms(c)
DAV:   1    -0.233173049626E+04   -0.29958E-05   -0.81319E-04  4336   0.287E-02    0.102E-02
RMM:   2    -0.233173051886E+04   -0.22593E-04   -0.19387E-04  3805   0.853E-03    0.200E-02
RMM:   3    -0.233173051589E+04    0.29629E-05   -0.23835E-05  2379   0.477E-03
 190 F= -.23532319E+04 E0= -.23532319E+04  d E =-.505966E-05  mag=     2.0000
       N       E                     dE             d eps       ncg     rms          rms(c)
DAV:   1    -0.233173052172E+04   -0.28654E-05   -0.24158E-04  4384   0.165E-02    0.781E-03
RMM:   2    -0.233173053104E+04   -0.93219E-05   -0.58148E-05  2915   0.482E-03
 191 F= -.23532319E+04 E0= -.23532319E+04  d E =-.797736E-05  mag=     2.0000
       N       E                     dE             d eps       ncg     rms          rms(c)
DAV:   1    -0.233173052853E+04   -0.68040E-05   -0.52658E-05  3528   0.867E-03    0.460E-03
RMM:   2    -0.233173053138E+04   -0.28541E-05   -0.13706E-05  2362   0.335E-03
 192 F= -.23532319E+04 E0= -.23532319E+04  d E =0.596379E-06  mag=     2.0000
       N       E                     dE             d eps       ncg     rms          rms(c)
DAV:   1    -0.233173053113E+04   -0.25984E-05   -0.53677E-04  4232   0.243E-02    0.744E-03
RMM:   2    -0.233173054459E+04   -0.13464E-04   -0.11160E-04  3295   0.655E-03    0.163E-02
RMM:   3    -0.233173054235E+04    0.22370E-05   -0.14626E-05  2283   0.398E-03
 193 F= -.23532319E+04 E0= -.23532319E+04  d E =-.383991E-05  mag=     2.0000
       N       E                     dE             d eps       ncg     rms          rms(c)
DAV:   1    -0.233173054396E+04    0.63125E-06   -0.30656E-03  4464   0.593E-02    0.180E-02
RMM:   2    -0.233173058816E+04   -0.44200E-04   -0.42628E-04  5247   0.136E-02    0.242E-02
RMM:   3    -0.233173058657E+04    0.15904E-05   -0.51350E-05  2613   0.588E-03
 194 F= -.23532320E+04 E0= -.23532320E+04  d E =-.329623E-04  mag=     2.0000
       N       E                     dE             d eps       ncg     rms          rms(c)
DAV:   1    -0.233173059906E+04   -0.10899E-04   -0.45353E-04  4416   0.240E-02    0.113E-02
RMM:   2    -0.233173061040E+04   -0.11341E-04   -0.52302E-05  3091   0.581E-03    0.270E-02
RMM:   3    -0.233173060177E+04    0.86311E-05   -0.10558E-05  2354   0.369E-03
 195 F= -.23532320E+04 E0= -.23532320E+04  d E =-.103047E-04  mag=     2.0000
       N       E                     dE             d eps       ncg     rms          rms(c)
DAV:   1    -0.233173061136E+04   -0.96450E-06   -0.15418E-04  4240   0.135E-02    0.730E-03
RMM:   2    -0.233173061911E+04   -0.77435E-05   -0.23345E-05  2565   0.351E-03
 196 F= -.23532320E+04 E0= -.23532320E+04  d E =-.156292E-04  mag=     2.0000
       N       E                     dE             d eps       ncg     rms          rms(c)
DAV:   1    -0.233173062025E+04   -0.88882E-05   -0.47584E-05  3056   0.760E-03    0.367E-03
RMM:   2    -0.233173062165E+04   -0.14000E-05   -0.10532E-05  2343   0.310E-03
 197 F= -.23532320E+04 E0= -.23532320E+04  d E =0.861405E-06  mag=     2.0000
       N       E                     dE             d eps       ncg     rms          rms(c)
DAV:   1    -0.233173063149E+04   -0.11240E-04   -0.18563E-04  3904   0.119E-02    0.479E-03
RMM:   2    -0.233173063581E+04   -0.43203E-05   -0.44843E-05  2601   0.384E-03
 198 F= -.23532320E+04 E0= -.23532320E+04  d E =-.109844E-04  mag=     2.0000
       N       E                     dE             d eps       ncg     rms          rms(c)
DAV:   1    -0.233173065716E+04   -0.25667E-04   -0.42738E-04  4208   0.205E-02    0.724E-03
RMM:   2    -0.233173066615E+04   -0.89916E-05   -0.76615E-05  2923   0.563E-03
 199 F= -.23532320E+04 E0= -.23532320E+04  d E =-.185287E-04  mag=     2.0000
       N       E                     dE             d eps       ncg     rms          rms(c)
DAV:   1    -0.233173067234E+04   -0.15186E-04   -0.28557E-04  4192   0.154E-02    0.653E-03
RMM:   2    -0.233173067987E+04   -0.75273E-05   -0.74525E-05  2879   0.493E-03
 200 F= -.23532320E+04 E0= -.23532320E+04  d E =-.121253E-04  mag=     2.0000
       N       E                     dE             d eps       ncg     rms          rms(c)
DAV:   1    -0.233173069110E+04   -0.18757E-04   -0.38231E-05  3136   0.708E-03    0.684E-03
RMM:   2    -0.233173069707E+04   -0.59676E-05   -0.14864E-05  2360   0.341E-03
 201 F= -.23532321E+04 E0= -.23532321E+04  d E =-.959834E-05  mag=     2.0000
