       N       E                     dE             d eps       ncg     rms          rms(c)
DAV:   1     0.131345541429E+05    0.13135E+05   -0.83764E+05  4504   0.145E+03
DAV:   2    -0.977514927673E+03   -0.14112E+05   -0.13479E+05  4928   0.331E+02
DAV:   3    -0.245871670316E+04   -0.14812E+04   -0.14625E+04  5496   0.116E+02
DAV:   4    -0.250639740132E+04   -0.47681E+02   -0.47437E+02  6680   0.305E+01
DAV:   5    -0.250727699880E+04   -0.87960E+00   -0.87780E+00  6312   0.356E+00    0.170E+02
RMM:   6    -0.148501208472E+04    0.10223E+04   -0.19198E+03  4427   0.380E+01    0.718E+01
RMM:   7    -0.165445397189E+04   -0.16944E+03   -0.28896E+02  5068   0.141E+01    0.463E+01
RMM:   8    -0.171308296584E+04   -0.58629E+02   -0.29302E+01  5379   0.643E+00    0.342E+01
RMM:   9    -0.186752072252E+04   -0.15444E+03   -0.73002E+01  4853   0.844E+00    0.376E+01
RMM:  10    -0.191904592264E+04   -0.51525E+02   -0.32996E+01  4957   0.533E+00    0.208E+01
RMM:  11    -0.202234069752E+04   -0.10329E+03   -0.44140E+01  4830   0.540E+00    0.174E+01
RMM:  12    -0.207914678389E+04   -0.56806E+02   -0.21735E+01  5112   0.389E+00    0.135E+01
RMM:  13    -0.219919451345E+04   -0.12005E+03   -0.87707E+01  4426   0.692E+00    0.105E+01
RMM:  14    -0.226350475254E+04   -0.64310E+02   -0.55746E+01  4589   0.535E+00    0.601E+00
RMM:  15    -0.228963531131E+04   -0.26131E+02   -0.27738E+01  4786   0.379E+00    0.456E+00
RMM:  16    -0.229442501133E+04   -0.47897E+01   -0.62242E+00  5199   0.179E+00    0.655E+00
RMM:  17    -0.229492598306E+04   -0.50097E+00   -0.65385E-01  5637   0.583E-01    0.586E+00
RMM:  18    -0.229493254695E+04   -0.65639E-02   -0.65418E-02  5686   0.176E-01    0.581E+00
RMM:  19    -0.229527832485E+04   -0.34578E+00   -0.87642E-02  4480   0.215E-01    0.565E+00
RMM:  20    -0.229694888658E+04   -0.16706E+01   -0.15141E+00  4438   0.737E-01    0.567E+00
RMM:  21    -0.229796103644E+04   -0.10121E+01   -0.86819E-01  4758   0.677E-01    0.510E+00
RMM:  22    -0.229833049270E+04   -0.36946E+00   -0.15334E-01  4739   0.327E-01    0.373E+00
RMM:  23    -0.229856410523E+04   -0.23361E+00   -0.11300E-01  4696   0.227E-01    0.270E+00
RMM:  24    -0.229878574243E+04   -0.22164E+00   -0.11016E-01  4761   0.247E-01    0.166E+00
RMM:  25    -0.229891513947E+04   -0.12940E+00   -0.54471E-02  4818   0.166E-01    0.110E+00
RMM:  26    -0.229900223401E+04   -0.87095E-01   -0.33128E-02  4879   0.123E-01    0.602E-01
RMM:  27    -0.229907017198E+04   -0.67938E-01   -0.25531E-02  5008   0.121E-01    0.170E-01
RMM:  28    -0.229909438700E+04   -0.24215E-01   -0.59930E-03  5117   0.650E-02    0.123E-01
RMM:  29    -0.229910894008E+04   -0.14553E-01   -0.29197E-03  4639   0.340E-02    0.974E-02
RMM:  30    -0.229911538901E+04   -0.64489E-02   -0.14197E-03  4404   0.273E-02    0.699E-02
RMM:  31    -0.229911752244E+04   -0.21334E-02   -0.59104E-04  4306   0.154E-02    0.449E-02
RMM:  32    -0.229911827370E+04   -0.75126E-03   -0.21440E-04  3959   0.110E-02    0.261E-02
RMM:  33    -0.229911847051E+04   -0.19681E-03   -0.70418E-05  3548   0.667E-03    0.157E-02
RMM:  34    -0.229911853057E+04   -0.60059E-04   -0.23593E-05  2979   0.514E-03    0.807E-03
RMM:  35    -0.229911854791E+04   -0.17336E-04   -0.87366E-06  2835   0.377E-03    0.472E-03
RMM:  36    -0.229911855253E+04   -0.46212E-05   -0.36291E-06  2820   0.264E-03
   1 F= -.23201536E+04 E0= -.23201536E+04  d E =-.232015E+04  mag=     4.0001
       N       E                     dE             d eps       ncg     rms          rms(c)
DAV:   1    -0.229913319877E+04   -0.14651E-01   -0.19542E+00  5376   0.142E+00    0.632E-01
RMM:   2    -0.229913606116E+04   -0.28624E-02   -0.60234E-02  4471   0.224E-01    0.254E-01
RMM:   3    -0.229913406205E+04    0.19991E-02   -0.39151E-03  4457   0.107E-01    0.144E-01
RMM:   4    -0.229913422386E+04   -0.16181E-03   -0.52265E-03  4423   0.543E-02    0.266E-01
RMM:   5    -0.229913339041E+04    0.83344E-03   -0.68781E-04  4254   0.373E-02    0.561E-02
RMM:   6    -0.229913332711E+04    0.63305E-04   -0.27832E-04  4369   0.111E-02    0.589E-02
RMM:   7    -0.229913330018E+04    0.26929E-04   -0.41882E-04  5378   0.156E-02    0.499E-02
RMM:   8    -0.229913324161E+04    0.58568E-04   -0.15462E-04  4609   0.102E-02    0.305E-02
RMM:   9    -0.229913322977E+04    0.11837E-04   -0.80481E-05  4048   0.833E-03    0.186E-02
RMM:  10    -0.229913321254E+04    0.17231E-04   -0.55751E-05  3686   0.728E-03    0.693E-03
RMM:  11    -0.229913321324E+04   -0.70324E-06   -0.17136E-05  2917   0.516E-03
   2 F= -.23201685E+04 E0= -.23201685E+04  d E =-.149282E-01  mag=     4.0000
       N       E                     dE             d eps       ncg     rms          rms(c)
DAV:   1    -0.229913404139E+04   -0.82885E-03   -0.68272E-02  4806   0.270E-01    0.119E-01
RMM:   2    -0.229913416159E+04   -0.12020E-03   -0.22870E-03  4992   0.459E-02    0.478E-02
RMM:   3    -0.229913409470E+04    0.66890E-04   -0.17495E-04  5159   0.231E-02    0.326E-02
RMM:   4    -0.229913413062E+04   -0.35921E-04   -0.11377E-04  3570   0.797E-03    0.712E-02
RMM:   5    -0.229913406786E+04    0.62766E-04   -0.51962E-05  3283   0.746E-03    0.911E-03
RMM:   6    -0.229913406762E+04    0.24066E-06   -0.94717E-06  2874   0.428E-03
   3 F= -.23201693E+04 E0= -.23201693E+04  d E =-.157335E-01  mag=     4.0000
       N       E                     dE             d eps       ncg     rms          rms(c)
DAV:   1    -0.229914130781E+04   -0.72400E-02   -0.10463E+00  4624   0.106E+00    0.325E-01
RMM:   2    -0.229914289328E+04   -0.15855E-02   -0.21677E-02  4472   0.141E-01    0.118E-01
RMM:   3    -0.229914263739E+04    0.25589E-03   -0.13607E-03  4424   0.701E-02    0.122E-01
RMM:   4    -0.229914256617E+04    0.71219E-04   -0.49004E-04  4785   0.173E-02    0.103E-01
RMM:   5    -0.229914240941E+04    0.15677E-03   -0.46439E-04  5170   0.183E-02    0.218E-02
RMM:   6    -0.229914240613E+04    0.32813E-05   -0.34178E-05  3070   0.704E-03
   4 F= -.23201779E+04 E0= -.23201779E+04  d E =-.856803E-02  mag=     4.0000
       N       E                     dE             d eps       ncg     rms          rms(c)
DAV:   1    -0.229914341062E+04   -0.10012E-02   -0.94692E-01  4688   0.101E+00    0.310E-01
RMM:   2    -0.229914488436E+04   -0.14737E-02   -0.19936E-02  4468   0.135E-01    0.118E-01
RMM:   3    -0.229914467142E+04    0.21294E-03   -0.12720E-03  4420   0.644E-02    0.131E-01
RMM:   4    -0.229914456752E+04    0.10389E-03   -0.46661E-04  4602   0.164E-02    0.998E-02
RMM:   5    -0.229914448110E+04    0.86426E-04   -0.43272E-04  5084   0.171E-02    0.754E-02
RMM:   6    -0.229914440853E+04    0.72564E-04   -0.73241E-05  3317   0.796E-03    0.209E-02
RMM:   7    -0.229914441022E+04   -0.16831E-05   -0.24518E-05  2892   0.415E-03
   5 F= -.23201801E+04 E0= -.23201801E+04  d E =-.107806E-01  mag=     4.0000
       N       E                     dE             d eps       ncg     rms          rms(c)
DAV:   1    -0.229914895149E+04   -0.45430E-02   -0.10810E+00  4576   0.108E+00    0.247E-01
RMM:   2    -0.229915086236E+04   -0.19109E-02   -0.22747E-02  4477   0.146E-01    0.108E-01
RMM:   3    -0.229915068805E+04    0.17431E-03   -0.13791E-03  4424   0.767E-02    0.109E-01
RMM:   4    -0.229915062894E+04    0.59113E-04   -0.35736E-04  4872   0.158E-02    0.912E-02
RMM:   5    -0.229915051442E+04    0.11452E-03   -0.38637E-04  5047   0.172E-02    0.352E-02
RMM:   6    -0.229915050097E+04    0.13444E-04   -0.32403E-05  2992   0.795E-03    0.237E-02
RMM:   7    -0.229915049453E+04    0.64465E-05   -0.13411E-05  2866   0.358E-03
   6 F= -.23201863E+04 E0= -.23201863E+04  d E =-.619539E-02  mag=     4.0000
       N       E                     dE             d eps       ncg     rms          rms(c)
DAV:   1    -0.229915084530E+04   -0.34433E-03   -0.13590E+00  4592   0.122E+00    0.278E-01
RMM:   2    -0.229915324569E+04   -0.24004E-02   -0.28769E-02  4460   0.165E-01    0.122E-01
RMM:   3    -0.229915298105E+04    0.26465E-03   -0.16847E-03  4422   0.840E-02    0.119E-01
RMM:   4    -0.229915291946E+04    0.61587E-04   -0.48101E-04  4938   0.182E-02    0.105E-01
RMM:   5    -0.229915278024E+04    0.13922E-03   -0.50331E-04  5255   0.195E-02    0.562E-02
RMM:   6    -0.229915273526E+04    0.44973E-04   -0.57384E-05  3167   0.853E-03    0.191E-02
RMM:   7    -0.229915273472E+04    0.54209E-06   -0.22799E-05  2921   0.421E-03
   7 F= -.23201886E+04 E0= -.23201886E+04  d E =-.855311E-02  mag=     4.0000
       N       E                     dE             d eps       ncg     rms          rms(c)
DAV:   1    -0.229915541264E+04   -0.26774E-02   -0.89360E-01  4560   0.101E+00    0.269E-01
RMM:   2    -0.229915721895E+04   -0.18063E-02   -0.21202E-02  4483   0.144E-01    0.103E-01
RMM:   3    -0.229915704209E+04    0.17686E-03   -0.13058E-03  4433   0.737E-02    0.106E-01
RMM:   4    -0.229915699373E+04    0.48357E-04   -0.36651E-04  4923   0.160E-02    0.916E-02
RMM:   5    -0.229915689219E+04    0.10154E-03   -0.30557E-04  5134   0.161E-02    0.363E-02
RMM:   6    -0.229915687931E+04    0.12881E-04   -0.27832E-05  2905   0.638E-03    0.235E-02
RMM:   7    -0.229915687218E+04    0.71289E-05   -0.97360E-06  2859   0.338E-03
   8 F= -.23201926E+04 E0= -.23201926E+04  d E =-.398825E-02  mag=     4.0000
       N       E                     dE             d eps       ncg     rms          rms(c)
DAV:   1    -0.229915710036E+04   -0.22105E-03   -0.28700E-01  4712   0.569E-01    0.153E-01
RMM:   2    -0.229915767993E+04   -0.57958E-03   -0.67763E-03  4481   0.821E-02    0.642E-02
RMM:   3    -0.229915768272E+04   -0.27821E-05   -0.54107E-04  4443   0.453E-02    0.945E-02
RMM:   4    -0.229915759112E+04    0.91599E-04   -0.14049E-04  3962   0.939E-03    0.422E-02
RMM:   5    -0.229915759786E+04   -0.67421E-05   -0.95829E-05  3472   0.912E-03
   9 F= -.23201933E+04 E0= -.23201933E+04  d E =-.462801E-02  mag=     4.0000
       N       E                     dE             d eps       ncg     rms          rms(c)
DAV:   1    -0.229915933551E+04   -0.17444E-02   -0.11232E+00  4528   0.114E+00    0.233E-01
RMM:   2    -0.229916176034E+04   -0.24248E-02   -0.26689E-02  4525   0.163E-01    0.116E-01
RMM:   3    -0.229916177867E+04   -0.18336E-04   -0.19142E-03  4458   0.858E-02    0.170E-01
RMM:   4    -0.229916146090E+04    0.31778E-03   -0.42401E-04  5269   0.171E-02    0.704E-02
RMM:   5    -0.229916145920E+04    0.16992E-05   -0.29618E-04  4725   0.150E-02    0.886E-02
RMM:   6    -0.229916137153E+04    0.87668E-04   -0.10039E-04  3610   0.931E-03    0.260E-02
RMM:   7    -0.229916137025E+04    0.12824E-05   -0.25503E-05  2891   0.494E-03
  10 F= -.23201970E+04 E0= -.23201970E+04  d E =-.372766E-02  mag=     4.0000
       N       E                     dE             d eps       ncg     rms          rms(c)
DAV:   1    -0.229916041340E+04    0.95812E-03   -0.12743E+00  4528   0.121E+00    0.249E-01
RMM:   2    -0.229916322661E+04   -0.28132E-02   -0.31003E-02  4493   0.173E-01    0.122E-01
RMM:   3    -0.229916320658E+04    0.20029E-04   -0.19104E-03  4451   0.809E-02    0.187E-01
RMM:   4    -0.229916283482E+04    0.37176E-03   -0.45574E-04  5059   0.174E-02    0.756E-02
RMM:   5    -0.229916279103E+04    0.43793E-04   -0.35426E-04  4906   0.166E-02    0.762E-02
RMM:   6    -0.229916272432E+04    0.66709E-04   -0.88308E-05  3275   0.947E-03    0.240E-02
RMM:   7    -0.229916272318E+04    0.11433E-05   -0.21424E-05  2892   0.412E-03
  11 F= -.23201983E+04 E0= -.23201983E+04  d E =-.503092E-02  mag=     4.0000
       N       E                     dE             d eps       ncg     rms          rms(c)
DAV:   1    -0.229916336838E+04   -0.64405E-03   -0.11671E+00  4512   0.117E+00    0.233E-01
RMM:   2    -0.229916603741E+04   -0.26690E-02   -0.29633E-02  4485   0.168E-01    0.102E-01
RMM:   3    -0.229916575945E+04    0.27796E-03   -0.16566E-03  4463   0.794E-02    0.970E-02
RMM:   4    -0.229916572322E+04    0.36227E-04   -0.33305E-04  5245   0.162E-02    0.923E-02
RMM:   5    -0.229916561869E+04    0.10453E-03   -0.34359E-04  4937   0.165E-02    0.414E-02
RMM:   6    -0.229916560527E+04    0.13423E-04   -0.40919E-05  2925   0.823E-03    0.264E-02
RMM:   7    -0.229916559886E+04    0.64131E-05   -0.93072E-06  2861   0.304E-03
  12 F= -.23202012E+04 E0= -.23202012E+04  d E =-.294764E-02  mag=     4.0000
       N       E                     dE             d eps       ncg     rms          rms(c)
DAV:   1    -0.229916494440E+04    0.66087E-03   -0.68779E-01  4528   0.899E-01    0.180E-01
RMM:   2    -0.229916651777E+04   -0.15734E-02   -0.17495E-02  4489   0.129E-01    0.781E-02
RMM:   3    -0.229916633904E+04    0.17873E-03   -0.96907E-04  4452   0.603E-02    0.673E-02
RMM:   4    -0.229916633609E+04    0.29475E-05   -0.21061E-04  4953   0.127E-02    0.751E-02
RMM:   5    -0.229916626438E+04    0.71708E-04   -0.20564E-04  4704   0.132E-02    0.277E-02
RMM:   6    -0.229916625545E+04    0.89377E-05   -0.24454E-05  2877   0.691E-03
  13 F= -.23202019E+04 E0= -.23202019E+04  d E =-.365902E-02  mag=     4.0000
       N       E                     dE             d eps       ncg     rms          rms(c)
DAV:   1    -0.229916638992E+04   -0.12553E-03   -0.14408E+00  4528   0.131E+00    0.236E-01
RMM:   2    -0.229916997688E+04   -0.35870E-02   -0.39133E-02  4518   0.188E-01    0.112E-01
RMM:   3    -0.229916956324E+04    0.41364E-03   -0.20143E-03  4563   0.769E-02    0.981E-02
RMM:   4    -0.229916955476E+04    0.84834E-05   -0.39088E-04  5236   0.174E-02    0.109E-01
RMM:   5    -0.229916941266E+04    0.14209E-03   -0.39762E-04  4864   0.179E-02    0.475E-02
RMM:   6    -0.229916939770E+04    0.14961E-04   -0.54009E-05  2994   0.948E-03    0.313E-02
RMM:   7    -0.229916938668E+04    0.11019E-04   -0.11214E-05  2870   0.331E-03    0.958E-03
RMM:   8    -0.229916938671E+04   -0.23341E-07   -0.56256E-06  2868   0.259E-03
  14 F= -.23202052E+04 E0= -.23202052E+04  d E =-.330234E-02  mag=     4.0000
       N       E                     dE             d eps       ncg     rms          rms(c)
DAV:   1    -0.229916761078E+04    0.17759E-02   -0.13314E+00  4528   0.126E+00    0.226E-01
RMM:   2    -0.229917089185E+04   -0.32811E-02   -0.35818E-02  4538   0.181E-01    0.109E-01
RMM:   3    -0.229917054243E+04    0.34942E-03   -0.19780E-03  4469   0.776E-02    0.102E-01
RMM:   4    -0.229917048642E+04    0.56016E-04   -0.35201E-04  5443   0.167E-02    0.916E-02
RMM:   5    -0.229917038114E+04    0.10527E-03   -0.36052E-04  4817   0.169E-02    0.479E-02
RMM:   6    -0.229917035961E+04    0.21530E-04   -0.58790E-05  2966   0.967E-03    0.266E-02
RMM:   7    -0.229917035561E+04    0.39998E-05   -0.14424E-05  2878   0.341E-03
  15 F= -.23202064E+04 E0= -.23202064E+04  d E =-.443606E-02  mag=     4.0000
       N       E                     dE             d eps       ncg     rms          rms(c)
DAV:   1    -0.229917015959E+04    0.20003E-03   -0.14428E+00  4528   0.132E+00    0.236E-01
RMM:   2    -0.229917382819E+04   -0.36686E-02   -0.39797E-02  4511   0.190E-01    0.113E-01
RMM:   3    -0.229917351200E+04    0.31619E-03   -0.23256E-03  4506   0.865E-02    0.122E-01
RMM:   4    -0.229917340269E+04    0.10930E-03   -0.37555E-04  5429   0.172E-02    0.905E-02
RMM:   5    -0.229917332685E+04    0.75842E-04   -0.37479E-04  4766   0.172E-02    0.688E-02
RMM:   6    -0.229917327950E+04    0.47354E-04   -0.78078E-05  3064   0.102E-02    0.269E-02
RMM:   7    -0.229917327454E+04    0.49541E-05   -0.15914E-05  2881   0.376E-03
  16 F= -.23202095E+04 E0= -.23202095E+04  d E =-.312434E-02  mag=     4.0000
       N       E                     dE             d eps       ncg     rms          rms(c)
DAV:   1    -0.229916161642E+04    0.11663E-01   -0.55383E+00  4516   0.258E+00    0.461E-01
RMM:   2    -0.229917569450E+04   -0.14078E-01   -0.15326E-01  4504   0.372E-01    0.217E-01
RMM:   3    -0.229917422594E+04    0.14686E-02   -0.85916E-03  4595   0.164E-01    0.202E-01
RMM:   4    -0.229917405037E+04    0.17557E-03   -0.14613E-03  5733   0.338E-02    0.190E-01
RMM:   5    -0.229917354418E+04    0.50619E-03   -0.14907E-03  4757   0.338E-02    0.757E-02
RMM:   6    -0.229917352298E+04    0.21204E-04   -0.20891E-04  4217   0.186E-02    0.675E-02
RMM:   7    -0.229917347771E+04    0.45266E-04   -0.48495E-05  2922   0.504E-03    0.283E-02
RMM:   8    -0.229917347336E+04    0.43505E-05   -0.24371E-05  2882   0.411E-03
  17 F= -.23202101E+04 E0= -.23202101E+04  d E =-.372830E-02  mag=     4.0000
       N       E                     dE             d eps       ncg     rms          rms(c)
DAV:   1    -0.229917229960E+04    0.11781E-02   -0.91869E-01  4528   0.105E+00    0.186E-01
RMM:   2    -0.229917457145E+04   -0.22718E-02   -0.24755E-02  4589   0.151E-01    0.861E-02
RMM:   3    -0.229917435800E+04    0.21345E-03   -0.14722E-03  4463   0.696E-02    0.738E-02
RMM:   4    -0.229917435195E+04    0.60510E-05   -0.24314E-04  5283   0.138E-02    0.810E-02
RMM:   5    -0.229917426223E+04    0.89713E-04   -0.22773E-04  4677   0.139E-02    0.196E-02
RMM:   6    -0.229917426246E+04   -0.22407E-06   -0.23110E-05  2894   0.767E-03
  18 F= -.23202107E+04 E0= -.23202107E+04  d E =-.435187E-02  mag=     4.0000
       N       E                     dE             d eps       ncg     rms          rms(c)
DAV:   1    -0.229917384052E+04    0.42171E-03   -0.13366E+00  4496   0.127E+00    0.215E-01
RMM:   2    -0.229917736410E+04   -0.35236E-02   -0.37799E-02  4517   0.184E-01    0.116E-01
RMM:   3    -0.229917719996E+04    0.16414E-03   -0.23288E-03  4535   0.841E-02    0.153E-01
RMM:   4    -0.229917696141E+04    0.23855E-03   -0.35505E-04  5360   0.167E-02    0.757E-02
RMM:   5    -0.229917690903E+04    0.52385E-04   -0.32319E-04  4698   0.161E-02    0.699E-02
RMM:   6    -0.229917685998E+04    0.49052E-04   -0.82191E-05  3109   0.103E-02    0.277E-02
RMM:   7    -0.229917685322E+04    0.67560E-05   -0.14831E-05  2875   0.416E-03
  19 F= -.23202134E+04 E0= -.23202134E+04  d E =-.262876E-02  mag=     4.0000
       N       E                     dE             d eps       ncg     rms          rms(c)
DAV:   1    -0.229917033217E+04    0.65278E-02   -0.33654E+00  4484   0.202E+00    0.346E-01
RMM:   2    -0.229917935069E+04   -0.90185E-02   -0.96287E-02  4506   0.294E-01    0.192E-01
RMM:   3    -0.229917909808E+04    0.25261E-03   -0.61278E-03  4586   0.133E-01    0.276E-01
RMM:   4    -0.229917828493E+04    0.81315E-03   -0.94443E-04  5681   0.267E-02    0.115E-01
RMM:   5    -0.229917818421E+04    0.10072E-03   -0.82851E-04  4682   0.246E-02    0.114E-01
RMM:   6    -0.229917804879E+04    0.13542E-03   -0.22923E-04  4325   0.157E-02    0.422E-02
RMM:   7    -0.229917803949E+04    0.92986E-05   -0.45918E-05  2933   0.527E-03
  20 F= -.23202146E+04 E0= -.23202146E+04  d E =-.387858E-02  mag=     4.0000
       N       E                     dE             d eps       ncg     rms          rms(c)
DAV:   1    -0.229917488377E+04    0.31650E-02   -0.23490E+00  4516   0.169E+00    0.286E-01
RMM:   2    -0.229918133389E+04   -0.64501E-02   -0.68381E-02  4536   0.247E-01    0.158E-01
RMM:   3    -0.229918127349E+04    0.60409E-04   -0.45344E-03  4443   0.112E-01    0.237E-01
RMM:   4    -0.229918067356E+04    0.59993E-03   -0.66622E-04  5592   0.222E-02    0.918E-02
RMM:   5    -0.229918055157E+04    0.12198E-03   -0.48671E-04  4680   0.200E-02    0.539E-02
RMM:   6    -0.229918055565E+04   -0.40754E-05   -0.12466E-04  3625   0.127E-02    0.517E-02
RMM:   7    -0.229918052843E+04    0.27216E-04   -0.28597E-05  2878   0.458E-03    0.162E-02
RMM:   8    -0.229918052810E+04    0.33190E-06   -0.94102E-06  2875   0.327E-03
  21 F= -.23202173E+04 E0= -.23202173E+04  d E =-.265720E-02  mag=     4.0000
       N       E                     dE             d eps       ncg     rms          rms(c)
DAV:   1    -0.229917759463E+04    0.29338E-02   -0.14661E+00  4528   0.134E+00    0.225E-01
RMM:   2    -0.229918166218E+04   -0.40675E-02   -0.42849E-02  4511   0.195E-01    0.135E-01
RMM:   3    -0.229918168715E+04   -0.24973E-04   -0.28937E-03  4500   0.867E-02    0.213E-01
RMM:   4    -0.229918118427E+04    0.50289E-03   -0.44756E-04  5304   0.179E-02    0.696E-02
RMM:   5    -0.229918110147E+04    0.82793E-04   -0.31404E-04  4672   0.162E-02    0.374E-02
RMM:   6    -0.229918110852E+04   -0.70421E-05   -0.76523E-05  3097   0.106E-02
  22 F= -.23202180E+04 E0= -.23202180E+04  d E =-.337261E-02  mag=     4.0000
       N       E                     dE             d eps       ncg     rms          rms(c)
DAV:   1    -0.229917984016E+04    0.12613E-02   -0.17942E+00  4516   0.149E+00    0.284E-01
RMM:   2    -0.229918471123E+04   -0.48711E-02   -0.53108E-02  4554   0.218E-01    0.130E-01
RMM:   3    -0.229918437014E+04    0.34110E-03   -0.33094E-03  4446   0.961E-02    0.139E-01
RMM:   4    -0.229918424470E+04    0.12544E-03   -0.52747E-04  5318   0.196E-02    0.108E-01
RMM:   5    -0.229918415764E+04    0.87063E-04   -0.43172E-04  4989   0.176E-02    0.863E-02
RMM:   6    -0.229918407599E+04    0.81643E-04   -0.15015E-04  4127   0.108E-02    0.263E-02
RMM:   7    -0.229918407122E+04    0.47745E-05   -0.19317E-05  2889   0.427E-03
  23 F= -.23202212E+04 E0= -.23202212E+04  d E =-.318786E-02  mag=     4.0000
       N       E                     dE             d eps       ncg     rms          rms(c)
DAV:   1    -0.229918308778E+04    0.98821E-03   -0.58011E-01  4592   0.845E-01    0.162E-01
RMM:   2    -0.229918464909E+04   -0.15613E-02   -0.17009E-02  4608   0.125E-01    0.754E-02
RMM:   3    -0.229918458414E+04    0.64950E-04   -0.12167E-03  4492   0.621E-02    0.919E-02
RMM:   4    -0.229918451081E+04    0.73328E-04   -0.17107E-04  4681   0.115E-02    0.519E-02
RMM:   5    -0.229918446227E+04    0.48542E-04   -0.13667E-04  4357   0.114E-02    0.129E-02
RMM:   6    -0.229918446558E+04   -0.33093E-05   -0.16684E-05  2895   0.752E-03
  24 F= -.23202217E+04 E0= -.23202217E+04  d E =-.371042E-02  mag=     4.0000
       N       E                     dE             d eps       ncg     rms          rms(c)
DAV:   1    -0.229918245221E+04    0.20101E-02   -0.19553E+00  4484   0.155E+00    0.287E-01
RMM:   2    -0.229918766998E+04   -0.52178E-02   -0.57244E-02  4485   0.226E-01    0.130E-01
RMM:   3    -0.229918716650E+04    0.50348E-03   -0.32747E-03  4529   0.957E-02    0.111E-01
RMM:   4    -0.229918717362E+04   -0.71182E-05   -0.60474E-04  5107   0.209E-02    0.127E-01
RMM:   5    -0.229918697756E+04    0.19606E-03   -0.53085E-04  5140   0.201E-02    0.598E-02
RMM:   6    -0.229918694846E+04    0.29095E-04   -0.91813E-05  3218   0.997E-03    0.353E-02
RMM:   7    -0.229918693762E+04    0.10845E-04   -0.20613E-05  2884   0.407E-03    0.219E-02
RMM:   8    -0.229918693288E+04    0.47396E-05   -0.99552E-06  2863   0.290E-03
  25 F= -.23202244E+04 E0= -.23202244E+04  d E =-.265793E-02  mag=     4.0000
       N       E                     dE             d eps       ncg     rms          rms(c)
DAV:   1    -0.229918635514E+04    0.58248E-03   -0.30367E-01  4576   0.612E-01    0.114E-01
RMM:   2    -0.229918716068E+04   -0.80554E-03   -0.88818E-03  4506   0.896E-02    0.520E-02
RMM:   3    -0.229918708618E+04    0.74499E-04   -0.53838E-04  4431   0.394E-02    0.452E-02
RMM:   4    -0.229918708388E+04    0.22954E-05   -0.98294E-05  3855   0.833E-03
  26 F= -.23202246E+04 E0= -.23202246E+04  d E =-.288429E-02  mag=     4.0000
       N       E                     dE             d eps       ncg     rms          rms(c)
DAV:   1    -0.229918468839E+04    0.23978E-02   -0.19089E+00  4472   0.153E+00    0.269E-01
RMM:   2    -0.229918965955E+04   -0.49712E-02   -0.53869E-02  4532   0.222E-01    0.138E-01
RMM:   3    -0.229918948157E+04    0.17798E-03   -0.36886E-03  4459   0.102E-01    0.179E-01
RMM:   4    -0.229918917924E+04    0.30233E-03   -0.54139E-04  5427   0.198E-02    0.908E-02
RMM:   5    -0.229918918056E+04   -0.13182E-05   -0.45736E-04  4915   0.175E-02    0.113E-01
RMM:   6    -0.229918904362E+04    0.13694E-03   -0.20146E-04  4495   0.119E-02    0.339E-02
RMM:   7    -0.229918903981E+04    0.38093E-05   -0.36457E-05  2894   0.514E-03
  27 F= -.23202269E+04 E0= -.23202269E+04  d E =-.232343E-02  mag=     4.0000
       N       E                     dE             d eps       ncg     rms          rms(c)
DAV:   1    -0.229918805681E+04    0.98681E-03   -0.43899E-01  4496   0.736E-01    0.131E-01
RMM:   2    -0.229918920542E+04   -0.11486E-02   -0.12466E-02  4602   0.108E-01    0.623E-02
RMM:   3    -0.229918915135E+04    0.54076E-04   -0.84674E-04  4485   0.535E-02    0.643E-02
RMM:   4    -0.229918912722E+04    0.24124E-04   -0.11952E-04  4104   0.971E-03    0.494E-02
RMM:   5    -0.229918910010E+04    0.27124E-04   -0.11101E-04  4164   0.102E-02    0.339E-02
RMM:   6    -0.229918908979E+04    0.10313E-04   -0.25397E-05  2874   0.716E-03    0.152E-02
RMM:   7    -0.229918908905E+04    0.73347E-06   -0.67049E-06  2865   0.260E-03
  28 F= -.23202271E+04 E0= -.23202271E+04  d E =-.254915E-02  mag=     4.0000
       N       E                     dE             d eps       ncg     rms          rms(c)
DAV:   1    -0.229918682370E+04    0.22661E-02   -0.17825E+00  4472   0.148E+00    0.258E-01
RMM:   2    -0.229919154710E+04   -0.47234E-02   -0.50923E-02  4491   0.216E-01    0.128E-01
RMM:   3    -0.229919130644E+04    0.24066E-03   -0.31948E-03  4472   0.994E-02    0.156E-01
RMM:   4    -0.229919107780E+04    0.22864E-03   -0.47664E-04  5558   0.193E-02    0.872E-02
RMM:   5    -0.229919098403E+04    0.93774E-04   -0.42491E-04  4729   0.187E-02    0.626E-02
RMM:   6    -0.229919095705E+04    0.26981E-04   -0.83594E-05  3182   0.113E-02    0.371E-02
RMM:   7    -0.229919094332E+04    0.13730E-04   -0.14485E-05  2880   0.368E-03    0.109E-02
RMM:   8    -0.229919094372E+04   -0.39913E-06   -0.65731E-06  2872   0.276E-03
  29 F= -.23202293E+04 E0= -.23202293E+04  d E =-.218300E-02  mag=     4.0000
       N       E                     dE             d eps       ncg     rms          rms(c)
DAV:   1    -0.229918972642E+04    0.12169E-02   -0.59810E-01  4496   0.858E-01    0.150E-01
RMM:   2    -0.229919132085E+04   -0.15944E-02   -0.17130E-02  4494   0.125E-01    0.780E-02
RMM:   3    -0.229919126380E+04    0.57055E-04   -0.10722E-03  4443   0.554E-02    0.105E-01
RMM:   4    -0.229919114943E+04    0.11437E-03   -0.17038E-04  4602   0.113E-02    0.492E-02
RMM:   5    -0.229919114352E+04    0.59088E-05   -0.14344E-04  4227   0.111E-02    0.589E-02
RMM:   6    -0.229919110564E+04    0.37875E-04   -0.47176E-05  2878   0.792E-03    0.166E-02
RMM:   7    -0.229919110603E+04   -0.38792E-06   -0.13735E-05  2879   0.425E-03
  30 F= -.23202297E+04 E0= -.23202297E+04  d E =-.253653E-02  mag=     4.0000
       N       E                     dE             d eps       ncg     rms          rms(c)
DAV:   1    -0.229918906012E+04    0.20455E-02   -0.18715E+00  4504   0.152E+00    0.255E-01
RMM:   2    -0.229919399533E+04   -0.49352E-02   -0.52863E-02  4502   0.221E-01    0.137E-01
RMM:   3    -0.229919382774E+04    0.16759E-03   -0.34611E-03  4467   0.103E-01    0.182E-01
RMM:   4    -0.229919347986E+04    0.34789E-03   -0.51099E-04  5672   0.199E-02    0.848E-02
RMM:   5    -0.229919344174E+04    0.38119E-04   -0.43455E-04  4718   0.182E-02    0.928E-02
RMM:   6    -0.229919335460E+04    0.87136E-04   -0.11731E-04  3505   0.117E-02    0.294E-02
RMM:   7    -0.229919334776E+04    0.68404E-05   -0.16970E-05  2889   0.419E-03
  31 F= -.23202322E+04 E0= -.23202322E+04  d E =-.251203E-02  mag=     4.0000
       N       E                     dE             d eps       ncg     rms          rms(c)
DAV:   1    -0.229919043676E+04    0.29178E-02   -0.14624E+00  4504   0.134E+00    0.227E-01
RMM:   2    -0.229919431014E+04   -0.38734E-02   -0.41429E-02  4510   0.196E-01    0.124E-01
RMM:   3    -0.229919418985E+04    0.12028E-03   -0.27233E-03  4472   0.909E-02    0.166E-01
RMM:   4    -0.229919389484E+04    0.29502E-03   -0.40911E-04  5372   0.178E-02    0.748E-02
RMM:   5    -0.229919388731E+04    0.75282E-05   -0.35103E-04  4770   0.162E-02    0.913E-02
RMM:   6    -0.229919379512E+04    0.92189E-04   -0.11223E-04  3714   0.107E-02    0.276E-02
RMM:   7    -0.229919379374E+04    0.13845E-05   -0.27346E-05  2889   0.471E-03
  32 F= -.23202329E+04 E0= -.23202329E+04  d E =-.319948E-02  mag=     4.0000
       N       E                     dE             d eps       ncg     rms          rms(c)
DAV:   1    -0.229919158310E+04    0.22120E-02   -0.17772E+00  4488   0.148E+00    0.241E-01
RMM:   2    -0.229919620791E+04   -0.46248E-02   -0.49407E-02  4514   0.215E-01    0.127E-01
RMM:   3    -0.229919601110E+04    0.19682E-03   -0.31996E-03  4463   0.102E-01    0.157E-01
RMM:   4    -0.229919576329E+04    0.24781E-03   -0.44805E-04  5553   0.191E-02    0.829E-02
RMM:   5    -0.229919568685E+04    0.76438E-04   -0.38990E-04  4648   0.181E-02    0.674E-02
RMM:   6    -0.229919565226E+04    0.34587E-04   -0.87525E-05  3200   0.116E-02    0.355E-02
RMM:   7    -0.229919564083E+04    0.11438E-04   -0.15097E-05  2876   0.380E-03    0.108E-02
RMM:   8    -0.229919564148E+04   -0.65321E-06   -0.61871E-06  2873   0.285E-03
  33 F= -.23202351E+04 E0= -.23202351E+04  d E =-.222628E-02  mag=     4.0000
       N       E                     dE             d eps       ncg     rms          rms(c)
DAV:   1    -0.229919258762E+04    0.30532E-02   -0.15281E+00  4516   0.137E+00    0.222E-01
RMM:   2    -0.229919658308E+04   -0.39955E-02   -0.42581E-02  4504   0.199E-01    0.122E-01
RMM:   3    -0.229919641995E+04    0.16313E-03   -0.25722E-03  4485   0.847E-02    0.161E-01
RMM:   4    -0.229919614476E+04    0.27519E-03   -0.39498E-04  5487   0.174E-02    0.756E-02
RMM:   5    -0.229919611631E+04    0.28453E-04   -0.34219E-04  4699   0.163E-02    0.856E-02
RMM:   6    -0.229919604003E+04    0.76278E-04   -0.98736E-05  3247   0.108E-02    0.255E-02
RMM:   7    -0.229919603473E+04    0.53001E-05   -0.14818E-05  2879   0.427E-03
  34 F= -.23202358E+04 E0= -.23202358E+04  d E =-.297330E-02  mag=     4.0000
       N       E                     dE             d eps       ncg     rms          rms(c)
DAV:   1    -0.229919515388E+04    0.88615E-03   -0.11592E+00  4496   0.119E+00    0.209E-01
RMM:   2    -0.229919816291E+04   -0.30090E-02   -0.32451E-02  4501   0.176E-01    0.108E-01
RMM:   3    -0.229919801967E+04    0.14324E-03   -0.21252E-03  4447   0.843E-02    0.127E-01
RMM:   4    -0.229919785552E+04    0.16415E-03   -0.33054E-04  5149   0.162E-02    0.713E-02
RMM:   5    -0.229919782837E+04    0.27152E-04   -0.29388E-04  4887   0.150E-02    0.728E-02
RMM:   6    -0.229919776704E+04    0.61334E-04   -0.91100E-05  3489   0.957E-03    0.236E-02
RMM:   7    -0.229919776849E+04   -0.14504E-05   -0.21217E-05  2880   0.464E-03
  35 F= -.23202378E+04 E0= -.23202378E+04  d E =-.197582E-02  mag=     4.0000
       N       E                     dE             d eps       ncg     rms          rms(c)
DAV:   1    -0.229919636844E+04    0.13986E-02   -0.69997E-01  4528   0.927E-01    0.163E-01
RMM:   2    -0.229919816695E+04   -0.17985E-02   -0.19523E-02  4521   0.137E-01    0.791E-02
RMM:   3    -0.229919805669E+04    0.11026E-03   -0.12957E-03  4459   0.690E-02    0.809E-02
RMM:   4    -0.229919801191E+04    0.44776E-04   -0.19196E-04  4915   0.125E-02    0.625E-02
RMM:   5    -0.229919794803E+04    0.63880E-04   -0.17514E-04  4536   0.128E-02    0.214E-02
RMM:   6    -0.229919795253E+04   -0.44984E-05   -0.27667E-05  2884   0.826E-03
  36 F= -.23202382E+04 E0= -.23202382E+04  d E =-.234980E-02  mag=     4.0000
       N       E                     dE             d eps       ncg     rms          rms(c)
DAV:   1    -0.229919729256E+04    0.65547E-03   -0.96482E-01  4484   0.109E+00    0.174E-01
RMM:   2    -0.229919982225E+04   -0.25297E-02   -0.26957E-02  4511   0.158E-01    0.918E-02
RMM:   3    -0.229919966907E+04    0.15318E-03   -0.14822E-03  4488   0.630E-02    0.102E-01
RMM:   4    -0.229919957845E+04    0.90628E-04   -0.22845E-04  4975   0.134E-02    0.664E-02
RMM:   5    -0.229919953726E+04    0.41181E-04   -0.20449E-04  4528   0.135E-02    0.541E-02
RMM:   6    -0.229919951486E+04    0.22401E-04   -0.57304E-05  2876   0.934E-03    0.283E-02
RMM:   7    -0.229919950928E+04    0.55858E-05   -0.13656E-05  2873   0.402E-03
  37 F= -.23202399E+04 E0= -.23202399E+04  d E =-.166913E-02  mag=     4.0000
       N       E                     dE             d eps       ncg     rms          rms(c)
DAV:   1    -0.229919454171E+04    0.49732E-02   -0.25537E+00  4472   0.177E+00    0.282E-01
RMM:   2    -0.229920117580E+04   -0.66341E-02   -0.70656E-02  4496   0.258E-01    0.152E-01
RMM:   3    -0.229920088450E+04    0.29130E-03   -0.44656E-03  4495   0.120E-01    0.186E-01
RMM:   4    -0.229920054666E+04    0.33783E-03   -0.63656E-04  5631   0.226E-02    0.101E-01
RMM:   5    -0.229920047483E+04    0.71837E-04   -0.55909E-04  4714   0.211E-02    0.103E-01
RMM:   6    -0.229920037411E+04    0.10071E-03   -0.15997E-04  3984   0.137E-02    0.369E-02
RMM:   7    -0.229920036107E+04    0.13041E-04   -0.18734E-05  2879   0.417E-03    0.119E-02
RMM:   8    -0.229920035991E+04    0.11675E-05   -0.65462E-06  2881   0.305E-03
  38 F= -.23202409E+04 E0= -.23202409E+04  d E =-.270751E-02  mag=     4.0000
       N       E                     dE             d eps       ncg     rms          rms(c)
DAV:   1    -0.229919899295E+04    0.13681E-02   -0.16127E+00  4504   0.141E+00    0.242E-01
RMM:   2    -0.229920315957E+04   -0.41666E-02   -0.44438E-02  4506   0.205E-01    0.130E-01
RMM:   3    -0.229920299448E+04    0.16508E-03   -0.26332E-03  4489   0.873E-02    0.164E-01
RMM:   4    -0.229920269922E+04    0.29526E-03   -0.45016E-04  5423   0.185E-02    0.789E-02
RMM:   5    -0.229920265260E+04    0.46622E-04   -0.38975E-04  4879   0.173E-02    0.746E-02
RMM:   6    -0.229920259311E+04    0.59491E-04   -0.10628E-04  3477   0.109E-02    0.292E-02
RMM:   7    -0.229920259404E+04   -0.93074E-06   -0.25536E-05  2877   0.439E-03
  39 F= -.23202433E+04 E0= -.23202433E+04  d E =-.240955E-02  mag=     4.0000
       N       E                     dE             d eps       ncg     rms          rms(c)
DAV:   1    -0.229919955617E+04    0.30369E-02   -0.15500E+00  4504   0.138E+00    0.238E-01
RMM:   2    -0.229920352232E+04   -0.39661E-02   -0.42518E-02  4514   0.202E-01    0.121E-01
RMM:   3    -0.229920334575E+04    0.17657E-03   -0.26848E-03  4450   0.951E-02    0.143E-01
RMM:   4    -0.229920314303E+04    0.20272E-03   -0.40945E-04  5326   0.181E-02    0.805E-02
RMM:   5    -0.229920304067E+04    0.10236E-03   -0.36164E-04  4718   0.178E-02    0.371E-02
RMM:   6    -0.229920304608E+04   -0.54130E-05   -0.62299E-05  3088   0.111E-02
  40 F= -.23202439E+04 E0= -.23202439E+04  d E =-.303705E-02  mag=     4.0000
       N       E                     dE             d eps       ncg     rms          rms(c)
DAV:   1    -0.229920075314E+04    0.22875E-02   -0.17736E+00  4472   0.148E+00    0.242E-01
RMM:   2    -0.229920537922E+04   -0.46261E-02   -0.49181E-02  4527   0.215E-01    0.128E-01
RMM:   3    -0.229920515706E+04    0.22216E-03   -0.28012E-03  4471   0.861E-02    0.155E-01
RMM:   4    -0.229920491208E+04    0.24498E-03   -0.43668E-04  5460   0.183E-02    0.835E-02
RMM:   5    -0.229920486625E+04    0.45830E-04   -0.38845E-04  4773   0.174E-02    0.805E-02
RMM:   6    -0.229920480513E+04    0.61122E-04   -0.11594E-04  3498   0.115E-02    0.348E-02
RMM:   7    -0.229920480058E+04    0.45498E-05   -0.27060E-05  2885   0.449E-03
  41 F= -.23202459E+04 E0= -.23202459E+04  d E =-.192877E-02  mag=     4.0000
       N       E                     dE             d eps       ncg     rms          rms(c)
DAV:   1    -0.229920263809E+04    0.21670E-02   -0.11014E+00  4528   0.116E+00    0.192E-01
RMM:   2    -0.229920547701E+04   -0.28389E-02   -0.30176E-02  4518   0.170E-01    0.101E-01
RMM:   3    -0.229920537659E+04    0.10042E-03   -0.19523E-03  4473   0.802E-02    0.127E-01
RMM:   4    -0.229920520664E+04    0.16995E-03   -0.28217E-04  5285   0.151E-02    0.634E-02
RMM:   5    -0.229920513676E+04    0.69873E-04   -0.23976E-04  4584   0.149E-02    0.238E-02
RMM:   6    -0.229920514647E+04   -0.97083E-05   -0.39235E-05  2891   0.976E-03
  42 F= -.23202463E+04 E0= -.23202463E+04  d E =-.241479E-02  mag=     4.0000
       N       E                     dE             d eps       ncg     rms          rms(c)
DAV:   1    -0.229920443344E+04    0.70332E-03   -0.12786E+00  4504   0.126E+00    0.227E-01
RMM:   2    -0.229920786250E+04   -0.34291E-02   -0.36672E-02  4544   0.185E-01    0.119E-01
RMM:   3    -0.229920775795E+04    0.10455E-03   -0.21033E-03  4483   0.709E-02    0.168E-01
RMM:   4    -0.229920745479E+04    0.30315E-03   -0.38011E-04  5325   0.165E-02    0.731E-02
RMM:   5    -0.229920744249E+04    0.12305E-04   -0.30078E-04  4767   0.154E-02    0.843E-02
RMM:   6    -0.229920736586E+04    0.76632E-04   -0.94056E-05  3129   0.995E-03    0.258E-02
RMM:   7    -0.229920736323E+04    0.26322E-05   -0.19432E-05  2887   0.483E-03
  43 F= -.23202486E+04 E0= -.23202486E+04  d E =-.225853E-02  mag=     4.0000
       N       E                     dE             d eps       ncg     rms          rms(c)
DAV:   1    -0.229920626017E+04    0.11057E-02   -0.65968E-01  4560   0.903E-01    0.164E-01
RMM:   2    -0.229920800676E+04   -0.17466E-02   -0.18639E-02  4551   0.134E-01    0.891E-02
RMM:   3    -0.229920801311E+04   -0.63478E-05   -0.13855E-03  4468   0.686E-02    0.132E-01
RMM:   4    -0.229920782202E+04    0.19109E-03   -0.21343E-04  4983   0.128E-02    0.505E-02
RMM:   5    -0.229920783237E+04   -0.10349E-04   -0.15834E-04  4288   0.116E-02    0.710E-02
RMM:   6    -0.229920777546E+04    0.56912E-04   -0.60680E-05  2947   0.832E-03    0.160E-02
RMM:   7    -0.229920777546E+04   -0.23574E-08   -0.13314E-05  2875   0.482E-03
  44 F= -.23202491E+04 E0= -.23202491E+04  d E =-.270241E-02  mag=     4.0000
       N       E                     dE             d eps       ncg     rms          rms(c)
DAV:   1    -0.229920596099E+04    0.18145E-02   -0.16491E+00  4504   0.143E+00    0.244E-01
RMM:   2    -0.229921025542E+04   -0.42944E-02   -0.45953E-02  4502   0.208E-01    0.127E-01
RMM:   3    -0.229921008847E+04    0.16696E-03   -0.28143E-03  4480   0.926E-02    0.168E-01
RMM:   4    -0.229920979881E+04    0.28966E-03   -0.43694E-04  5494   0.184E-02    0.815E-02
RMM:   5    -0.229920977823E+04    0.20577E-04   -0.39650E-04  4764   0.176E-02    0.924E-02
RMM:   6    -0.229920968638E+04    0.91848E-04   -0.11438E-04  3612   0.113E-02    0.261E-02
RMM:   7    -0.229920968399E+04    0.23923E-05   -0.20196E-05  2890   0.414E-03
  45 F= -.23202511E+04 E0= -.23202511E+04  d E =-.203420E-02  mag=     4.0000
       N       E                     dE             d eps       ncg     rms          rms(c)
DAV:   1    -0.229920869847E+04    0.98791E-03   -0.54235E-01  4560   0.818E-01    0.142E-01
RMM:   2    -0.229921010986E+04   -0.14114E-02   -0.15118E-02  4528   0.120E-01    0.725E-02
RMM:   3    -0.229921005456E+04    0.55299E-04   -0.97489E-04  4477   0.563E-02    0.916E-02
RMM:   4    -0.229920997085E+04    0.83713E-04   -0.14352E-04  4540   0.108E-02    0.476E-02
RMM:   5    -0.229920995853E+04    0.12323E-04   -0.12919E-04  4277   0.109E-02    0.502E-02
RMM:   6    -0.229920993205E+04    0.26471E-04   -0.36544E-05  2872   0.776E-03    0.162E-02
RMM:   7    -0.229920993116E+04    0.89488E-06   -0.92635E-06  2859   0.333E-03
  46 F= -.23202514E+04 E0= -.23202514E+04  d E =-.235492E-02  mag=     4.0000
       N       E                     dE             d eps       ncg     rms          rms(c)
DAV:   1    -0.229920767418E+04    0.22579E-02   -0.19834E+00  4504   0.156E+00    0.266E-01
RMM:   2    -0.229921281216E+04   -0.51380E-02   -0.55409E-02  4487   0.227E-01    0.126E-01
RMM:   3    -0.229921233824E+04    0.47391E-03   -0.29866E-03  4500   0.950E-02    0.107E-01
RMM:   4    -0.229921234508E+04   -0.68398E-05   -0.54681E-04  5073   0.203E-02    0.123E-01
RMM:   5    -0.229921217653E+04    0.16855E-03   -0.51157E-04  5013   0.204E-02    0.618E-02
RMM:   6    -0.229921214130E+04    0.35231E-04   -0.83339E-05  3223   0.106E-02    0.313E-02
RMM:   7    -0.229921213411E+04    0.71880E-05   -0.17252E-05  2878   0.385E-03
  47 F= -.23202538E+04 E0= -.23202538E+04  d E =-.240806E-02  mag=     4.0000
       N       E                     dE             d eps       ncg     rms          rms(c)
DAV:   1    -0.229921126789E+04    0.87341E-03   -0.46887E-01  4528   0.760E-01    0.131E-01
RMM:   2    -0.229921248409E+04   -0.12162E-02   -0.13082E-02  4515   0.111E-01    0.643E-02
RMM:   3    -0.229921240032E+04    0.83764E-04   -0.80272E-04  4456   0.522E-02    0.641E-02
RMM:   4    -0.229921237328E+04    0.27041E-04   -0.12220E-04  4232   0.979E-03    0.505E-02
RMM:   5    -0.229921234837E+04    0.24908E-04   -0.11811E-04  4225   0.106E-02    0.372E-02
RMM:   6    -0.229921233385E+04    0.14527E-04   -0.27055E-05  2872   0.735E-03    0.139E-02
RMM:   7    -0.229921233361E+04    0.23711E-06   -0.68325E-06  2859   0.270E-03
  48 F= -.23202541E+04 E0= -.23202541E+04  d E =-.270860E-02  mag=     4.0000
       N       E                     dE             d eps       ncg     rms          rms(c)
DAV:   1    -0.229920932306E+04    0.30108E-02   -0.21604E+00  4504   0.164E+00    0.288E-01
RMM:   2    -0.229921506145E+04   -0.57384E-02   -0.62307E-02  4494   0.239E-01    0.137E-01
RMM:   3    -0.229921460615E+04    0.45530E-03   -0.35564E-03  4498   0.996E-02    0.159E-01
RMM:   4    -0.229921442729E+04    0.17886E-03   -0.55997E-04  5528   0.203E-02    0.106E-01
RMM:   5    -0.229921425158E+04    0.17571E-03   -0.54208E-04  4667   0.212E-02    0.434E-02
RMM:   6    -0.229921424520E+04    0.63810E-05   -0.88284E-05  3518   0.130E-02
  49 F= -.23202561E+04 E0= -.23202561E+04  d E =-.202686E-02  mag=     4.0000
       N       E                     dE             d eps       ncg     rms          rms(c)
DAV:   1    -0.229921237990E+04    0.18717E-02   -0.69136E-01  4528   0.926E-01    0.166E-01
RMM:   2    -0.229921423068E+04   -0.18508E-02   -0.20025E-02  4527   0.136E-01    0.832E-02
RMM:   3    -0.229921414628E+04    0.84400E-04   -0.12490E-03  4469   0.573E-02    0.111E-01
RMM:   4    -0.229921402540E+04    0.12088E-03   -0.19240E-04  5134   0.117E-02    0.520E-02
RMM:   5    -0.229921400551E+04    0.19895E-04   -0.16827E-04  4432   0.118E-02    0.554E-02
RMM:   6    -0.229921397301E+04    0.32494E-04   -0.54193E-05  2880   0.827E-03    0.213E-02
RMM:   7    -0.229921397107E+04    0.19425E-05   -0.14792E-05  2891   0.408E-03
  50 F= -.23202559E+04 E0= -.23202559E+04  d E =-.181981E-02  mag=     4.0000
       N       E                     dE             d eps       ncg     rms          rms(c)
DAV:   1    -0.229921374991E+04    0.22310E-03   -0.21821E-01  4592   0.519E-01    0.899E-02
RMM:   2    -0.229921430077E+04   -0.55086E-03   -0.60186E-03  4689   0.760E-02    0.444E-02
RMM:   3    -0.229921427821E+04    0.22562E-04   -0.41610E-04  4431   0.377E-02    0.557E-02
RMM:   4    -0.229921425231E+04    0.25901E-04   -0.53882E-05  3138   0.680E-03    0.317E-02
RMM:   5    -0.229921424124E+04    0.11068E-04   -0.56395E-05  3989   0.744E-03    0.244E-02
RMM:   6    -0.229921423481E+04    0.64291E-05   -0.14006E-05  2872   0.583E-03
  51 F= -.23202562E+04 E0= -.23202562E+04  d E =-.204575E-02  mag=     4.0000
       N       E                     dE             d eps       ncg     rms          rms(c)
DAV:   1    -0.229921139394E+04    0.28473E-02   -0.19093E+00  4504   0.154E+00    0.249E-01
RMM:   2    -0.229921656660E+04   -0.51727E-02   -0.55468E-02  4501   0.223E-01    0.124E-01
RMM:   3    -0.229921613961E+04    0.42699E-03   -0.31468E-03  4573   0.929E-02    0.132E-01
RMM:   4    -0.229921602423E+04    0.11538E-03   -0.46528E-04  5275   0.187E-02    0.985E-02
RMM:   5    -0.229921592118E+04    0.10305E-03   -0.43779E-04  4681   0.192E-02    0.736E-02
RMM:   6    -0.229921587250E+04    0.48676E-04   -0.10376E-04  3466   0.123E-02    0.286E-02
RMM:   7    -0.229921586689E+04    0.56101E-05   -0.16041E-05  2881   0.355E-03
  52 F= -.23202579E+04 E0= -.23202579E+04  d E =-.175420E-02  mag=     4.0000
       N       E                     dE             d eps       ncg     rms          rms(c)
DAV:   1    -0.229921500759E+04    0.86491E-03   -0.44662E-01  4528   0.744E-01    0.124E-01
RMM:   2    -0.229921622546E+04   -0.12179E-02   -0.13016E-02  4525   0.109E-01    0.598E-02
RMM:   3    -0.229921613337E+04    0.92095E-04   -0.79443E-04  4510   0.498E-02    0.578E-02
RMM:   4    -0.229921611712E+04    0.16242E-04   -0.11389E-04  4125   0.942E-03    0.493E-02
RMM:   5    -0.229921610565E+04    0.11479E-04   -0.10138E-04  4094   0.944E-03    0.465E-02
RMM:   6    -0.229921608161E+04    0.24033E-04   -0.32646E-05  2877   0.690E-03    0.118E-02
RMM:   7    -0.229921608193E+04   -0.31962E-06   -0.66927E-06  2859   0.326E-03
  53 F= -.23202582E+04 E0= -.23202582E+04  d E =-.202968E-02  mag=     4.0000
       N       E                     dE             d eps       ncg     rms          rms(c)
DAV:   1    -0.229921470431E+04    0.13773E-02   -0.13951E+00  4504   0.132E+00    0.257E-01
RMM:   2    -0.229921850219E+04   -0.37979E-02   -0.41533E-02  4500   0.195E-01    0.114E-01
RMM:   3    -0.229921818036E+04    0.32183E-03   -0.23744E-03  4518   0.822E-02    0.120E-01
RMM:   4    -0.229921810194E+04    0.78423E-04   -0.41524E-04  5101   0.175E-02    0.981E-02
RMM:   5    -0.229921798277E+04    0.11917E-03   -0.38301E-04  4917   0.180E-02    0.503E-02
RMM:   6    -0.229921796174E+04    0.21031E-04   -0.63138E-05  3020   0.977E-03    0.286E-02
RMM:   7    -0.229921795396E+04    0.77740E-05   -0.13069E-05  2876   0.340E-03
  54 F= -.23202601E+04 E0= -.23202601E+04  d E =-.191755E-02  mag=     4.0000
       N       E                     dE             d eps       ncg     rms          rms(c)
DAV:   1    -0.229921786229E+04    0.99451E-04   -0.55741E-02  4816   0.264E-01    0.537E-02
RMM:   2    -0.229921801606E+04   -0.15377E-03   -0.16431E-03  4966   0.404E-02    0.300E-02
RMM:   3    -0.229921801777E+04   -0.17151E-05   -0.13523E-04  4109   0.203E-02    0.395E-02
RMM:   4    -0.229921799930E+04    0.18474E-04   -0.21067E-05  2878   0.434E-03    0.160E-02
RMM:   5    -0.229921800113E+04   -0.18268E-05   -0.13912E-05  2875   0.345E-03
  55 F= -.23202602E+04 E0= -.23202602E+04  d E =-.197402E-02  mag=     4.0000
       N       E                     dE             d eps       ncg     rms          rms(c)
DAV:   1    -0.229921704451E+04    0.95479E-03   -0.96431E-01  4516   0.110E+00    0.197E-01
RMM:   2    -0.229921977142E+04   -0.27269E-02   -0.28934E-02  4562   0.162E-01    0.117E-01
RMM:   3    -0.229921985972E+04   -0.88302E-04   -0.21701E-03  4491   0.770E-02    0.190E-01
RMM:   4    -0.229921945550E+04    0.40422E-03   -0.33740E-04  5188   0.155E-02    0.578E-02
RMM:   5    -0.229921945055E+04    0.49578E-05   -0.23034E-04  4705   0.137E-02    0.740E-02
RMM:   6    -0.229921938946E+04    0.61089E-04   -0.82804E-05  3141   0.911E-03    0.211E-02
RMM:   7    -0.229921938805E+04    0.14106E-05   -0.17771E-05  2887   0.496E-03
  56 F= -.23202616E+04 E0= -.23202616E+04  d E =-.139320E-02  mag=     4.0000
       N       E                     dE             d eps       ncg     rms          rms(c)
DAV:   1    -0.229921858375E+04    0.80571E-03   -0.39383E-01  4528   0.702E-01    0.127E-01
RMM:   2    -0.229921968326E+04   -0.10995E-02   -0.11794E-02  4582   0.105E-01    0.667E-02
RMM:   3    -0.229921969760E+04   -0.14347E-04   -0.92853E-04  4505   0.562E-02    0.103E-01
RMM:   4    -0.229921958407E+04    0.11353E-03   -0.12361E-04  4144   0.991E-03    0.386E-02
RMM:   5    -0.229921957302E+04    0.11053E-04   -0.96721E-05  4091   0.975E-03    0.414E-02
RMM:   6    -0.229921955475E+04    0.18275E-04   -0.29025E-05  2878   0.686E-03    0.146E-02
RMM:   7    -0.229921955309E+04    0.16518E-05   -0.70523E-06  2854   0.329E-03
  57 F= -.23202617E+04 E0= -.23202617E+04  d E =-.156304E-02  mag=     4.0000
       N       E                     dE             d eps       ncg     rms          rms(c)
DAV:   1    -0.229921922492E+04    0.32982E-03   -0.56086E-01  4516   0.837E-01    0.139E-01
RMM:   2    -0.229922081753E+04   -0.15926E-02   -0.16921E-02  4547   0.123E-01    0.761E-02
RMM:   3    -0.229922078514E+04    0.32390E-04   -0.11358E-03  4457   0.558E-02    0.108E-01
RMM:   4    -0.229922066556E+04    0.11958E-03   -0.15681E-04  4459   0.108E-02    0.462E-02
RMM:   5    -0.229922065878E+04    0.67845E-05   -0.12303E-04  4172   0.103E-02    0.505E-02
RMM:   6    -0.229922063107E+04    0.27701E-04   -0.47142E-05  2887   0.774E-03    0.160E-02
RMM:   7    -0.229922063159E+04   -0.51875E-06   -0.11701E-05  2869   0.430E-03
  58 F= -.23202629E+04 E0= -.23202629E+04  d E =-.115440E-02  mag=     4.0000
       N       E                     dE             d eps       ncg     rms          rms(c)
DAV:   1    -0.229921624668E+04    0.43844E-02   -0.19861E+00  4504   0.158E+00    0.260E-01
RMM:   2    -0.229922191991E+04   -0.56732E-02   -0.60362E-02  4515   0.231E-01    0.141E-01
RMM:   3    -0.229922174732E+04    0.17259E-03   -0.37607E-03  4552   0.986E-02    0.203E-01
RMM:   4    -0.229922133042E+04    0.41690E-03   -0.54617E-04  5547   0.201E-02    0.860E-02
RMM:   5    -0.229922124111E+04    0.89310E-04   -0.44867E-04  4640   0.194E-02    0.639E-02
RMM:   6    -0.229922121473E+04    0.26380E-04   -0.10749E-04  3438   0.124E-02    0.383E-02
RMM:   7    -0.229922120044E+04    0.14293E-04   -0.16757E-05  2872   0.399E-03    0.122E-02
RMM:   8    -0.229922120067E+04   -0.23725E-06   -0.66553E-06  2855   0.299E-03
  59 F= -.23202636E+04 E0= -.23202636E+04  d E =-.186892E-02  mag=     4.0000
       N       E                     dE             d eps       ncg     rms          rms(c)
DAV:   1    -0.229922023446E+04    0.96597E-03   -0.95382E-01  4504   0.109E+00    0.186E-01
RMM:   2    -0.229922290234E+04   -0.26679E-02   -0.28757E-02  4525   0.160E-01    0.901E-02
RMM:   3    -0.229922269347E+04    0.20887E-03   -0.16787E-03  4465   0.686E-02    0.939E-02
RMM:   4    -0.229922264576E+04    0.47710E-04   -0.25797E-04  5210   0.137E-02    0.772E-02
RMM:   5    -0.229922255971E+04    0.86055E-04   -0.24524E-04  4602   0.147E-02    0.243E-02
RMM:   6    -0.229922255935E+04    0.36298E-06   -0.35258E-05  2887   0.920E-03
  60 F= -.23202651E+04 E0= -.23202651E+04  d E =-.150138E-02  mag=     4.0000
       N       E                     dE             d eps       ncg     rms          rms(c)
DAV:   1    -0.229921955007E+04    0.30096E-02   -0.13128E+00  4504   0.128E+00    0.220E-01
RMM:   2    -0.229922324061E+04   -0.36905E-02   -0.39896E-02  4517   0.188E-01    0.103E-01
RMM:   3    -0.229922287671E+04    0.36389E-03   -0.21888E-03  4510   0.758E-02    0.832E-02
RMM:   4    -0.229922292256E+04   -0.45851E-04   -0.41372E-04  5016   0.171E-02    0.116E-01
RMM:   5    -0.229922275673E+04    0.16584E-03   -0.34384E-04  4970   0.169E-02    0.361E-02
RMM:   6    -0.229922275080E+04    0.59288E-05   -0.49434E-05  2902   0.847E-03
  61 F= -.23202655E+04 E0= -.23202655E+04  d E =-.186258E-02  mag=     4.0000
       N       E                     dE             d eps       ncg     rms          rms(c)
DAV:   1    -0.229922136773E+04    0.13890E-02   -0.10537E+00  4516   0.115E+00    0.187E-01
RMM:   2    -0.229922435132E+04   -0.29836E-02   -0.31755E-02  4553   0.168E-01    0.942E-02
RMM:   3    -0.229922414127E+04    0.21005E-03   -0.18380E-03  4503   0.663E-02    0.102E-01
RMM:   4    -0.229922406570E+04    0.75566E-04   -0.26783E-04  5331   0.138E-02    0.688E-02
RMM:   5    -0.229922402345E+04    0.42258E-04   -0.22989E-04  4617   0.139E-02    0.536E-02
RMM:   6    -0.229922399822E+04    0.25230E-04   -0.66299E-05  2892   0.944E-03    0.245E-02
RMM:   7    -0.229922399606E+04    0.21590E-05   -0.14455E-05  2885   0.388E-03
  62 F= -.23202668E+04 E0= -.23202668E+04  d E =-.132604E-02  mag=     4.0000
       N       E                     dE             d eps       ncg     rms          rms(c)
DAV:   1    -0.229922008460E+04    0.39136E-02   -0.17657E+00  4504   0.148E+00    0.241E-01
RMM:   2    -0.229922504601E+04   -0.49614E-02   -0.53018E-02  4520   0.217E-01    0.114E-01
RMM:   3    -0.229922458784E+04    0.45817E-03   -0.31453E-03  4527   0.968E-02    0.881E-02
RMM:   4    -0.229922468950E+04   -0.10166E-03   -0.58119E-04  5069   0.203E-02    0.138E-01
RMM:   5    -0.229922446053E+04    0.22897E-03   -0.40491E-04  5238   0.188E-02    0.317E-02
RMM:   6    -0.229922446628E+04   -0.57461E-05   -0.50388E-05  2916   0.769E-03
  63 F= -.23202674E+04 E0= -.23202674E+04  d E =-.190402E-02  mag=     4.0000
       N       E                     dE             d eps       ncg     rms          rms(c)
DAV:   1    -0.229922354627E+04    0.91426E-03   -0.11455E+00  4516   0.119E+00    0.218E-01
RMM:   2    -0.229922672884E+04   -0.31826E-02   -0.34504E-02  4534   0.176E-01    0.982E-02
RMM:   3    -0.229922640490E+04    0.32394E-03   -0.18725E-03  4515   0.691E-02    0.844E-02
RMM:   4    -0.229922642044E+04   -0.15538E-04   -0.35907E-04  5308   0.158E-02    0.994E-02
RMM:   5    -0.229922629776E+04    0.12268E-03   -0.28624E-04  4935   0.154E-02    0.385E-02
RMM:   6    -0.229922629376E+04    0.39984E-05   -0.47264E-05  2886   0.829E-03
  64 F= -.23202692E+04 E0= -.23202692E+04  d E =-.186526E-02  mag=     4.0000
       N       E                     dE             d eps       ncg     rms          rms(c)
DAV:   1    -0.229922521957E+04    0.10782E-02   -0.55413E-01  4560   0.830E-01    0.152E-01
RMM:   2    -0.229922675617E+04   -0.15366E-02   -0.16690E-02  4549   0.123E-01    0.687E-02
RMM:   3    -0.229922660195E+04    0.15421E-03   -0.96260E-04  4480   0.512E-02    0.567E-02
RMM:   4    -0.229922662169E+04   -0.19740E-04   -0.18684E-04  4934   0.114E-02    0.760E-02
RMM:   5    -0.229922655027E+04    0.71426E-04   -0.12866E-04  4272   0.110E-02    0.305E-02
RMM:   6    -0.229922654474E+04    0.55213E-05   -0.29327E-05  2877   0.680E-03
  65 F= -.23202695E+04 E0= -.23202695E+04  d E =-.214372E-02  mag=     4.0000
       N       E                     dE             d eps       ncg     rms          rms(c)
DAV:   1    -0.229922502867E+04    0.15216E-02   -0.13597E+00  4504   0.130E+00    0.223E-01
RMM:   2    -0.229922863496E+04   -0.36063E-02   -0.38889E-02  4508   0.189E-01    0.104E-01
RMM:   3    -0.229922826563E+04    0.36932E-03   -0.20524E-03  4502   0.764E-02    0.766E-02
RMM:   4    -0.229922832696E+04   -0.61333E-04   -0.46388E-04  4726   0.186E-02    0.120E-01
RMM:   5    -0.229922817731E+04    0.14965E-03   -0.30781E-04  5109   0.166E-02    0.482E-02
RMM:   6    -0.229922815644E+04    0.20871E-04   -0.56299E-05  2889   0.697E-03    0.238E-02
RMM:   7    -0.229922815050E+04    0.59367E-05   -0.93314E-06  2870   0.392E-03
  66 F= -.23202712E+04 E0= -.23202712E+04  d E =-.170105E-02  mag=     4.0000
       N       E                     dE             d eps       ncg     rms          rms(c)
DAV:   1    -0.229922712573E+04    0.10307E-02   -0.54485E-01  4528   0.821E-01    0.142E-01
RMM:   2    -0.229922856485E+04   -0.14391E-02   -0.15478E-02  4517   0.121E-01    0.698E-02
RMM:   3    -0.229922846800E+04    0.96842E-04   -0.98271E-04  4482   0.576E-02    0.763E-02
RMM:   4    -0.229922842071E+04    0.47296E-04   -0.14241E-04  4496   0.107E-02    0.507E-02
RMM:   5    -0.229922838810E+04    0.32605E-04   -0.13262E-04  4379   0.112E-02    0.351E-02
RMM:   6    -0.229922837672E+04    0.11386E-04   -0.31381E-05  2874   0.779E-03    0.165E-02
RMM:   7    -0.229922837562E+04    0.10941E-05   -0.78798E-06  2861   0.282E-03
  67 F= -.23202715E+04 E0= -.23202715E+04  d E =-.198766E-02  mag=     4.0000
       N       E                     dE             d eps       ncg     rms          rms(c)
DAV:   1    -0.229922707183E+04    0.13049E-02   -0.13273E+00  4504   0.128E+00    0.236E-01
RMM:   2    -0.229923042203E+04   -0.33502E-02   -0.36426E-02  4481   0.187E-01    0.109E-01
RMM:   3    -0.229923021816E+04    0.20387E-03   -0.20873E-03  4483   0.811E-02    0.132E-01
RMM:   4    -0.229923008228E+04    0.13588E-03   -0.35026E-04  5222   0.163E-02    0.827E-02
RMM:   5    -0.229922998005E+04    0.10223E-03   -0.34309E-04  4730   0.173E-02    0.295E-02
RMM:   6    -0.229922997949E+04    0.56476E-06   -0.45217E-05  3009   0.102E-02
  68 F= -.23202732E+04 E0= -.23202732E+04  d E =-.173475E-02  mag=     4.0000
       N       E                     dE             d eps       ncg     rms          rms(c)
DAV:   1    -0.229922934001E+04    0.64004E-03   -0.31292E-01  4576   0.621E-01    0.117E-01
RMM:   2    -0.229923014046E+04   -0.80045E-03   -0.86493E-03  4515   0.911E-02    0.556E-02
RMM:   3    -0.229923010876E+04    0.31704E-04   -0.52480E-04  4440   0.392E-02    0.698E-02
RMM:   4    -0.229923006244E+04    0.46314E-04   -0.85603E-05  3569   0.807E-03    0.375E-02
RMM:   5    -0.229923005525E+04    0.71930E-05   -0.77314E-05  4041   0.843E-03
  69 F= -.23202734E+04 E0= -.23202734E+04  d E =-.187470E-02  mag=     4.0000
       N       E                     dE             d eps       ncg     rms          rms(c)
DAV:   1    -0.229922830740E+04    0.17550E-02   -0.14409E+00  4504   0.133E+00    0.229E-01
RMM:   2    -0.229923191014E+04   -0.36027E-02   -0.39127E-02  4520   0.194E-01    0.110E-01
RMM:   3    -0.229923165934E+04    0.25080E-03   -0.23471E-03  4473   0.909E-02    0.113E-01
RMM:   4    -0.229923159800E+04    0.61337E-04   -0.36803E-04  5278   0.172E-02    0.973E-02
RMM:   5    -0.229923145514E+04    0.14286E-03   -0.36270E-04  4746   0.180E-02    0.182E-02
RMM:   6    -0.229923145472E+04    0.42334E-06   -0.29185E-05  3074   0.960E-03
  70 F= -.23202749E+04 E0= -.23202749E+04  d E =-.152728E-02  mag=     4.0000
       N       E                     dE             d eps       ncg     rms          rms(c)
DAV:   1    -0.229923102597E+04    0.42916E-03   -0.20879E-01  4624   0.507E-01    0.900E-02
RMM:   2    -0.229923157608E+04   -0.55010E-03   -0.57824E-03  4555   0.745E-02    0.580E-02
RMM:   3    -0.229923158970E+04   -0.13624E-04   -0.41744E-04  4455   0.331E-02    0.856E-02
RMM:   4    -0.229923150242E+04    0.87278E-04   -0.70476E-05  3183   0.708E-03    0.265E-02
RMM:   5    -0.229923150510E+04   -0.26827E-05   -0.52699E-05  3281   0.715E-03
  71 F= -.23202750E+04 E0= -.23202750E+04  d E =-.162688E-02  mag=     4.0000
       N       E                     dE             d eps       ncg     rms          rms(c)
DAV:   1    -0.229923003094E+04    0.14715E-02   -0.13381E+00  4504   0.128E+00    0.237E-01
RMM:   2    -0.229923329564E+04   -0.32647E-02   -0.35469E-02  4540   0.188E-01    0.114E-01
RMM:   3    -0.229923323361E+04    0.62026E-04   -0.24205E-03  4455   0.963E-02    0.159E-01
RMM:   4    -0.229923298213E+04    0.25148E-03   -0.38164E-04  5465   0.176E-02    0.758E-02
RMM:   5    -0.229923292173E+04    0.60396E-04   -0.31347E-04  4775   0.165E-02    0.597E-02
RMM:   6    -0.229923288999E+04    0.31744E-04   -0.68382E-05  2977   0.975E-03    0.283E-02
RMM:   7    -0.229923288199E+04    0.79928E-05   -0.10602E-05  2862   0.357E-03
  72 F= -.23202765E+04 E0= -.23202765E+04  d E =-.149527E-02  mag=     4.0000
       N       E                     dE             d eps       ncg     rms          rms(c)
DAV:   1    -0.229923267118E+04    0.21881E-03   -0.11767E-01  4720   0.380E-01    0.717E-02
RMM:   2    -0.229923296606E+04   -0.29488E-03   -0.31233E-03  4670   0.567E-02    0.427E-02
RMM:   3    -0.229923298825E+04   -0.22198E-04   -0.27631E-04  4386   0.315E-02    0.682E-02
RMM:   4    -0.229923293457E+04    0.53686E-04   -0.45250E-05  2937   0.585E-03    0.218E-02
RMM:   5    -0.229923293766E+04   -0.30975E-05   -0.26555E-05  2886   0.480E-03
  73 F= -.23202766E+04 E0= -.23202766E+04  d E =-.158634E-02  mag=     4.0000
       N       E                     dE             d eps       ncg     rms          rms(c)
DAV:   1    -0.229923167987E+04    0.12547E-02   -0.12478E+00  4516   0.123E+00    0.217E-01
RMM:   2    -0.229923463082E+04   -0.29509E-02   -0.32177E-02  4494   0.179E-01    0.103E-01
RMM:   3    -0.229923437616E+04    0.25466E-03   -0.19078E-03  4430   0.869E-02    0.913E-02
RMM:   4    -0.229923435547E+04    0.20687E-04   -0.34839E-04  5151   0.169E-02    0.938E-02
RMM:   5    -0.229923427829E+04    0.77180E-04   -0.32620E-04  5103   0.162E-02    0.665E-02
RMM:   6    -0.229923422818E+04    0.50108E-04   -0.73547E-05  2960   0.856E-03    0.225E-02
RMM:   7    -0.229923422575E+04    0.24324E-05   -0.14128E-05  2878   0.400E-03
  74 F= -.23202780E+04 E0= -.23202780E+04  d E =-.138533E-02  mag=     4.0000
       N       E                     dE             d eps       ncg     rms          rms(c)
DAV:   1    -0.229923385707E+04    0.37111E-03   -0.16540E-01  4592   0.449E-01    0.808E-02
RMM:   2    -0.229923424552E+04   -0.38845E-03   -0.42466E-03  4630   0.662E-02    0.380E-02
RMM:   3    -0.229923422453E+04    0.20998E-04   -0.30660E-04  4426   0.367E-02    0.373E-02
RMM:   4    -0.229923422029E+04    0.42378E-05   -0.43311E-05  3082   0.633E-03
  75 F= -.23202780E+04 E0= -.23202780E+04  d E =-.141574E-02  mag=     4.0000
       N       E                     dE             d eps       ncg     rms          rms(c)
DAV:   1    -0.229923347679E+04    0.74773E-03   -0.90746E-01  4504   0.105E+00    0.176E-01
RMM:   2    -0.229923569849E+04   -0.22217E-02   -0.23386E-02  4498   0.150E-01    0.110E-01
RMM:   3    -0.229923563580E+04    0.62686E-04   -0.13849E-03  4473   0.532E-02    0.149E-01
RMM:   4    -0.229923538239E+04    0.25341E-03   -0.26416E-04  4990   0.134E-02    0.595E-02
RMM:   5    -0.229923540046E+04   -0.18064E-04   -0.15471E-04  3757   0.102E-02    0.821E-02
RMM:   6    -0.229923532932E+04    0.71136E-04   -0.16156E-04  4363   0.111E-02    0.326E-02
RMM:   7    -0.229923531993E+04    0.93878E-05   -0.25116E-05  2877   0.788E-03
  76 F= -.23202792E+04 E0= -.23202792E+04  d E =-.118375E-02  mag=     4.0000
       N       E                     dE             d eps       ncg     rms          rms(c)
DAV:   1    -0.229923310572E+04    0.22236E-02   -0.11923E+00  4516   0.120E+00    0.202E-01
RMM:   2    -0.229923602148E+04   -0.29158E-02   -0.31319E-02  4473   0.173E-01    0.990E-02
RMM:   3    -0.229923577283E+04    0.24865E-03   -0.15696E-03  4528   0.685E-02    0.108E-01
RMM:   4    -0.229923568475E+04    0.88084E-04   -0.27559E-04  5334   0.148E-02    0.752E-02
RMM:   5    -0.229923562859E+04    0.56162E-04   -0.29288E-04  4646   0.154E-02    0.588E-02
RMM:   6    -0.229923559306E+04    0.35525E-04   -0.60868E-05  2906   0.985E-03    0.233E-02
RMM:   7    -0.229923559020E+04    0.28572E-05   -0.14188E-05  2876   0.354E-03
  77 F= -.23202795E+04 E0= -.23202795E+04  d E =-.155189E-02  mag=     4.0000
       N       E                     dE             d eps       ncg     rms          rms(c)
DAV:   1    -0.229923516604E+04    0.42702E-03   -0.80175E-01  4516   0.986E-01    0.160E-01
RMM:   2    -0.229923705593E+04   -0.18899E-02   -0.20393E-02  4471   0.142E-01    0.777E-02
RMM:   3    -0.229923690083E+04    0.15510E-03   -0.11770E-03  4457   0.673E-02    0.670E-02
RMM:   4    -0.229923690506E+04   -0.42289E-05   -0.20741E-04  4974   0.129E-02    0.745E-02
RMM:   5    -0.229923682628E+04    0.78781E-04   -0.19423E-04  4702   0.135E-02    0.131E-02
RMM:   6    -0.229923682582E+04    0.45940E-06   -0.14429E-05  2885   0.731E-03
  78 F= -.23202809E+04 E0= -.23202809E+04  d E =-.134745E-02  mag=     4.0000
       N       E                     dE             d eps       ncg     rms          rms(c)
DAV:   1    -0.229923341136E+04    0.34149E-02   -0.18927E+00  4504   0.152E+00    0.245E-01
RMM:   2    -0.229923795672E+04   -0.45454E-02   -0.48824E-02  4462   0.217E-01    0.127E-01
RMM:   3    -0.229923762208E+04    0.33464E-03   -0.22975E-03  4569   0.788E-02    0.148E-01
RMM:   4    -0.229923744321E+04    0.17887E-03   -0.41632E-04  5224   0.181E-02    0.946E-02
RMM:   5    -0.229923734286E+04    0.10035E-03   -0.46218E-04  4589   0.197E-02    0.645E-02
RMM:   6    -0.229923730018E+04    0.42684E-04   -0.95061E-05  3616   0.134E-02    0.253E-02
RMM:   7    -0.229923729640E+04    0.37754E-05   -0.16688E-05  2881   0.335E-03
  79 F= -.23202815E+04 E0= -.23202815E+04  d E =-.199260E-02  mag=     4.0000
       N       E                     dE             d eps       ncg     rms          rms(c)
DAV:   1    -0.229923635658E+04    0.94360E-03   -0.11168E+00  4516   0.116E+00    0.199E-01
RMM:   2    -0.229923894385E+04   -0.25873E-02   -0.27972E-02  4476   0.167E-01    0.932E-02
RMM:   3    -0.229923874053E+04    0.20332E-03   -0.13750E-03  4439   0.682E-02    0.872E-02
RMM:   4    -0.229923872726E+04    0.13268E-04   -0.26695E-04  4847   0.146E-02    0.908E-02
RMM:   5    -0.229923861920E+04    0.10806E-03   -0.28055E-04  4764   0.159E-02    0.287E-02
RMM:   6    -0.229923861572E+04    0.34834E-05   -0.38337E-05  2888   0.934E-03
  80 F= -.23202830E+04 E0= -.23202830E+04  d E =-.142223E-02  mag=     4.0000
       N       E                     dE             d eps       ncg     rms          rms(c)
DAV:   1    -0.229923717192E+04    0.14473E-02   -0.78568E-01  4528   0.975E-01    0.168E-01
RMM:   2    -0.229923900007E+04   -0.18282E-02   -0.19791E-02  4468   0.140E-01    0.787E-02
RMM:   3    -0.229923885377E+04    0.14631E-03   -0.93798E-04  4443   0.541E-02    0.767E-02
RMM:   4    -0.229923883415E+04    0.19614E-04   -0.18537E-04  4726   0.119E-02    0.732E-02
RMM:   5    -0.229923875448E+04    0.79674E-04   -0.19884E-04  4578   0.136E-02    0.210E-02
RMM:   6    -0.229923875600E+04   -0.15176E-05   -0.25374E-05  2876   0.890E-03
  81 F= -.23202832E+04 E0= -.23202832E+04  d E =-.165029E-02  mag=     4.0000
       N       E                     dE             d eps       ncg     rms          rms(c)
DAV:   1    -0.229923747323E+04    0.12813E-02   -0.12977E+00  4516   0.125E+00    0.207E-01
RMM:   2    -0.229924050869E+04   -0.30355E-02   -0.32403E-02  4460   0.179E-01    0.112E-01
RMM:   3    -0.229924041789E+04    0.90802E-04   -0.16354E-03  4496   0.672E-02    0.160E-01
RMM:   4    -0.229924015133E+04    0.26656E-03   -0.30929E-04  5157   0.155E-02    0.681E-02
RMM:   5    -0.229924010129E+04    0.50033E-04   -0.31611E-04  4568   0.166E-02    0.572E-02
RMM:   6    -0.229924006800E+04    0.33296E-04   -0.57367E-05  3044   0.111E-02    0.215E-02
RMM:   7    -0.229924006419E+04    0.38104E-05   -0.87311E-06  2861   0.302E-03
  82 F= -.23202846E+04 E0= -.23202846E+04  d E =-.142065E-02  mag=     4.0000
       N       E                     dE             d eps       ncg     rms          rms(c)
DAV:   1    -0.229923916140E+04    0.90660E-03   -0.54280E-01  4544   0.809E-01    0.135E-01
RMM:   2    -0.229924042130E+04   -0.12599E-02   -0.13423E-02  4465   0.116E-01    0.743E-02
RMM:   3    -0.229924040119E+04    0.20112E-04   -0.80369E-04  4472   0.525E-02    0.106E-01
RMM:   4    -0.229924028447E+04    0.11673E-03   -0.14046E-04  4333   0.105E-02    0.448E-02
RMM:   5    -0.229924028817E+04   -0.37026E-05   -0.13077E-04  4100   0.105E-02    0.582E-02
RMM:   6    -0.229924024685E+04    0.41317E-04   -0.47791E-05  2930   0.776E-03    0.140E-02
RMM:   7    -0.229924024741E+04   -0.56188E-06   -0.12408E-05  2870   0.488E-03
  83 F= -.23202849E+04 E0= -.23202849E+04  d E =-.167784E-02  mag=     4.0000
       N       E                     dE             d eps       ncg     rms          rms(c)
DAV:   1    -0.229923942795E+04    0.81890E-03   -0.11197E+00  4516   0.116E+00    0.209E-01
RMM:   2    -0.229924200354E+04   -0.25756E-02   -0.27862E-02  4458   0.167E-01    0.109E-01
RMM:   3    -0.229924197689E+04    0.26656E-04   -0.14934E-03  4487   0.669E-02    0.169E-01
RMM:   4    -0.229924167227E+04    0.30461E-03   -0.31737E-04  5150   0.152E-02    0.634E-02
RMM:   5    -0.229924160787E+04    0.64404E-04   -0.29508E-04  4719   0.159E-02    0.427E-02
RMM:   6    -0.229924159194E+04    0.15929E-04   -0.45329E-05  2937   0.992E-03    0.247E-02
RMM:   7    -0.229924158499E+04    0.69480E-05   -0.86465E-06  2849   0.302E-03
  84 F= -.23202864E+04 E0= -.23202864E+04  d E =-.148488E-02  mag=     4.0000
       N       E                     dE             d eps       ncg     rms          rms(c)
DAV:   1    -0.229924040288E+04    0.11891E-02   -0.56053E-01  4544   0.821E-01    0.149E-01
RMM:   2    -0.229924169025E+04   -0.12874E-02   -0.13912E-02  4458   0.118E-01    0.811E-02
RMM:   3    -0.229924169454E+04   -0.42981E-05   -0.83955E-04  4458   0.523E-02    0.126E-01
RMM:   4    -0.229924152238E+04    0.17216E-03   -0.17525E-04  4539   0.111E-02    0.458E-02
RMM:   5    -0.229924152068E+04    0.17085E-05   -0.14759E-04  4164   0.110E-02    0.595E-02
RMM:   6    -0.229924147475E+04    0.45928E-04   -0.52570E-05  2958   0.807E-03    0.137E-02
RMM:   7    -0.229924147532E+04   -0.57308E-06   -0.13615E-05  2875   0.512E-03
  85 F= -.23202864E+04 E0= -.23202864E+04  d E =-.148047E-02  mag=     4.0000
       N       E                     dE             d eps       ncg     rms          rms(c)
DAV:   1    -0.229924144035E+04    0.34401E-04   -0.10203E-01  4656   0.350E-01    0.615E-02
RMM:   2    -0.229924166365E+04   -0.22330E-03   -0.24268E-03  4609   0.503E-02    0.345E-02
RMM:   3    -0.229924167104E+04   -0.73994E-05   -0.16759E-04  4316   0.249E-02    0.553E-02
RMM:   4    -0.229924163769E+04    0.33355E-04   -0.29066E-05  2913   0.498E-03    0.189E-02
RMM:   5    -0.229924163095E+04    0.67414E-05   -0.23462E-05  2909   0.515E-03
  86 F= -.23202865E+04 E0= -.23202865E+04  d E =-.159116E-02  mag=     4.0000
       N       E                     dE             d eps       ncg     rms          rms(c)
DAV:   1    -0.229924070430E+04    0.93339E-03   -0.11067E+00  4516   0.115E+00    0.189E-01
RMM:   2    -0.229924312743E+04   -0.24231E-02   -0.26044E-02  4479   0.163E-01    0.104E-01
RMM:   3    -0.229924310841E+04    0.19017E-04   -0.14888E-03  4444   0.740E-02    0.150E-01
RMM:   4    -0.229924287576E+04    0.23266E-03   -0.27609E-04  5038   0.146E-02    0.640E-02
RMM:   5    -0.229924280549E+04    0.70270E-04   -0.27943E-04  4629   0.159E-02    0.324E-02
RMM:   6    -0.229924280211E+04    0.33809E-05   -0.40246E-05  2939   0.103E-02
  87 F= -.23202878E+04 E0= -.23202878E+04  d E =-.132459E-02  mag=     4.0000
       N       E                     dE             d eps       ncg     rms          rms(c)
DAV:   1    -0.229924083471E+04    0.19708E-02   -0.10381E+00  4516   0.111E+00    0.186E-01
RMM:   2    -0.229924315899E+04   -0.23243E-02   -0.25059E-02  4456   0.158E-01    0.965E-02
RMM:   3    -0.229924305430E+04    0.10470E-03   -0.11599E-03  4446   0.591E-02    0.125E-01
RMM:   4    -0.229924290935E+04    0.14494E-03   -0.23445E-04  4900   0.135E-02    0.661E-02
RMM:   5    -0.229924283805E+04    0.71302E-04   -0.26080E-04  4556   0.155E-02    0.291E-02
RMM:   6    -0.229924283695E+04    0.11042E-05   -0.38645E-05  2914   0.107E-02
  88 F= -.23202880E+04 E0= -.23202880E+04  d E =-.151011E-02  mag=     4.0000
       N       E                     dE             d eps       ncg     rms          rms(c)
DAV:   1    -0.229924242269E+04    0.41536E-03   -0.72854E-01  4528   0.932E-01    0.149E-01
RMM:   2    -0.229924401214E+04   -0.15894E-02   -0.17082E-02  4450   0.131E-01    0.727E-02
RMM:   3    -0.229924389435E+04    0.11779E-03   -0.69794E-04  4430   0.476E-02    0.682E-02
RMM:   4    -0.229924388567E+04    0.86750E-05   -0.14796E-04  4458   0.109E-02    0.691E-02
RMM:   5    -0.229924382481E+04    0.60867E-04   -0.17793E-04  4494   0.130E-02    0.251E-02
RMM:   6    -0.229924382030E+04    0.45074E-05   -0.24893E-05  2874   0.885E-03
  89 F= -.23202891E+04 E0= -.23202891E+04  d E =-.109469E-02  mag=     4.0000
       N       E                     dE             d eps       ncg     rms          rms(c)
DAV:   1    -0.229923929609E+04    0.45287E-02   -0.26413E+00  4504   0.177E+00    0.281E-01
RMM:   2    -0.229924506384E+04   -0.57677E-02   -0.61914E-02  4446   0.249E-01    0.141E-01
RMM:   3    -0.229924465711E+04    0.40672E-03   -0.24140E-03  4541   0.864E-02    0.149E-01
RMM:   4    -0.229924452451E+04    0.13260E-03   -0.50535E-04  5028   0.203E-02    0.118E-01
RMM:   5    -0.229924431824E+04    0.20627E-03   -0.64620E-04  4487   0.242E-02    0.363E-02
RMM:   6    -0.229924431522E+04    0.30225E-05   -0.84343E-05  3872   0.168E-02
  90 F= -.23202898E+04 E0= -.23202898E+04  d E =-.180532E-02  mag=     4.0000
       N       E                     dE             d eps       ncg     rms          rms(c)
DAV:   1    -0.229924424085E+04    0.77386E-04   -0.76338E-01  4528   0.955E-01    0.178E-01
RMM:   2    -0.229924593778E+04   -0.16969E-02   -0.18625E-02  4445   0.137E-01    0.791E-02
RMM:   3    -0.229924576375E+04    0.17403E-03   -0.76923E-04  4446   0.524E-02    0.524E-02
RMM:   4    -0.229924577581E+04   -0.12060E-04   -0.44341E-04  4424   0.189E-02    0.746E-02
RMM:   5    -0.229924570950E+04    0.66308E-04   -0.59808E-05  3035   0.114E-02    0.171E-02
RMM:   6    -0.229924570866E+04    0.84244E-06   -0.13081E-05  2894   0.323E-03
  91 F= -.23202913E+04 E0= -.23202913E+04  d E =-.151700E-02  mag=     4.0000
       N       E                     dE             d eps       ncg     rms          rms(c)
DAV:   1    -0.229924443478E+04    0.12747E-02   -0.69391E-01  4528   0.910E-01    0.169E-01
RMM:   2    -0.229924593917E+04   -0.15044E-02   -0.16556E-02  4445   0.131E-01    0.794E-02
RMM:   3    -0.229924585267E+04    0.86501E-04   -0.97241E-04  4432   0.646E-02    0.858E-02
RMM:   4    -0.229924580799E+04    0.44683E-04   -0.18457E-04  4893   0.120E-02    0.637E-02
RMM:   5    -0.229924576271E+04    0.45280E-04   -0.19680E-04  4695   0.131E-02    0.488E-02
RMM:   6    -0.229924573622E+04    0.26492E-04   -0.36971E-05  2874   0.830E-03    0.162E-02
RMM:   7    -0.229924573403E+04    0.21876E-05   -0.86334E-06  2861   0.298E-03
  92 F= -.23202914E+04 E0= -.23202914E+04  d E =-.166146E-02  mag=     4.0000
       N       E                     dE             d eps       ncg     rms          rms(c)
DAV:   1    -0.229924569503E+04    0.41184E-04   -0.91262E-02  4656   0.330E-01    0.597E-02
RMM:   2    -0.229924588941E+04   -0.19438E-03   -0.21502E-03  4587   0.472E-02    0.279E-02
RMM:   3    -0.229924587142E+04    0.17988E-04   -0.11629E-04  4344   0.217E-02    0.234E-02
RMM:   4    -0.229924586943E+04    0.19914E-05   -0.24751E-05  2919   0.471E-03
  93 F= -.23202915E+04 E0= -.23202915E+04  d E =-.175352E-02  mag=     4.0000
       N       E                     dE             d eps       ncg     rms          rms(c)
DAV:   1    -0.229924609727E+04   -0.22584E-03   -0.31106E-01  4528   0.611E-01    0.122E-01
RMM:   2    -0.229924680690E+04   -0.70963E-03   -0.76622E-03  4463   0.890E-02    0.686E-02
RMM:   3    -0.229924687562E+04   -0.68726E-04   -0.58757E-04  4429   0.438E-02    0.122E-01
RMM:   4    -0.229924671189E+04    0.16373E-03   -0.12291E-04  3716   0.911E-03    0.323E-02
RMM:   5    -0.229924670129E+04    0.10600E-04   -0.83973E-05  4078   0.898E-03    0.339E-02
RMM:   6    -0.229924668785E+04    0.13440E-04   -0.25886E-05  2878   0.676E-03    0.994E-03
RMM:   7    -0.229924668768E+04    0.17192E-06   -0.56103E-06  2858   0.280E-03
  94 F= -.23202924E+04 E0= -.23202924E+04  d E =-.887580E-03  mag=     4.0000
       N       E                     dE             d eps       ncg     rms          rms(c)
DAV:   1    -0.229924635258E+04    0.33527E-03   -0.25162E-01  4528   0.549E-01    0.111E-01
RMM:   2    -0.229924690436E+04   -0.55177E-03   -0.61371E-03  4459   0.795E-02    0.478E-02
RMM:   3    -0.229924685520E+04    0.49153E-04   -0.33722E-04  4419   0.381E-02    0.387E-02
RMM:   4    -0.229924686400E+04   -0.87978E-05   -0.86371E-05  3967   0.817E-03
  95 F= -.23202927E+04 E0= -.23202927E+04  d E =-.112681E-02  mag=     4.0000
       N       E                     dE             d eps       ncg     rms          rms(c)
DAV:   1    -0.229924692122E+04   -0.66018E-04   -0.40563E-01  4516   0.695E-01    0.129E-01
RMM:   2    -0.229924775782E+04   -0.83660E-03   -0.91640E-03  4640   0.994E-02    0.638E-02
RMM:   3    -0.229924776222E+04   -0.43973E-05   -0.64032E-04  4650   0.497E-02    0.919E-02
RMM:   4    -0.229924768011E+04    0.82110E-04   -0.11916E-04  3782   0.949E-03    0.412E-02
RMM:   5    -0.229924768397E+04   -0.38613E-05   -0.96794E-05  3971   0.902E-03
  96 F= -.23202936E+04 E0= -.23202936E+04  d E =-.928138E-03  mag=     4.0000
       N       E                     dE             d eps       ncg     rms          rms(c)
DAV:   1    -0.229924576862E+04    0.19115E-02   -0.10462E+00  4516   0.112E+00    0.207E-01
RMM:   2    -0.229924799027E+04   -0.22217E-02   -0.24099E-02  4456   0.159E-01    0.111E-01
RMM:   3    -0.229924807058E+04   -0.80305E-04   -0.15916E-03  4439   0.770E-02    0.174E-01
RMM:   4    -0.229924773966E+04    0.33092E-03   -0.36482E-04  5110   0.154E-02    0.608E-02
RMM:   5    -0.229924775491E+04   -0.15258E-04   -0.26936E-04  4807   0.144E-02    0.875E-02
RMM:   6    -0.229924766537E+04    0.89548E-04   -0.91208E-05  3582   0.947E-03    0.203E-02
RMM:   7    -0.229924766470E+04    0.66948E-06   -0.20149E-05  2888   0.468E-03
  97 F= -.23202937E+04 E0= -.23202937E+04  d E =-.108313E-02  mag=     4.0000
       N       E                     dE             d eps       ncg     rms          rms(c)
DAV:   1    -0.229924766959E+04   -0.42216E-05   -0.88458E-02  4656   0.325E-01    0.584E-02
RMM:   2    -0.229924785052E+04   -0.18093E-03   -0.20008E-03  4631   0.465E-02    0.296E-02
RMM:   3    -0.229924784851E+04    0.20079E-05   -0.14595E-04  4591   0.253E-02    0.413E-02
RMM:   4    -0.229924783181E+04    0.16703E-04   -0.22965E-05  2886   0.450E-03    0.197E-02
RMM:   5    -0.229924783182E+04   -0.16211E-07   -0.21188E-05  2881   0.454E-03
  98 F= -.23202939E+04 E0= -.23202939E+04  d E =-.119969E-02  mag=     4.0000
       N       E                     dE             d eps       ncg     rms          rms(c)
DAV:   1    -0.229924797574E+04   -0.14393E-03   -0.27301E-01  4528   0.571E-01    0.972E-02
RMM:   2    -0.229924854792E+04   -0.57218E-03   -0.62452E-03  4481   0.815E-02    0.500E-02
RMM:   3    -0.229924853649E+04    0.11426E-04   -0.41759E-04  4423   0.440E-02    0.623E-02
RMM:   4    -0.229924850262E+04    0.33879E-04   -0.65042E-05  3219   0.752E-03    0.359E-02
RMM:   5    -0.229924849354E+04    0.90769E-05   -0.62551E-05  3835   0.790E-03
  99 F= -.23202946E+04 E0= -.23202946E+04  d E =-.763408E-03  mag=     4.0000
       N       E                     dE             d eps       ncg     rms          rms(c)
DAV:   1    -0.229924377464E+04    0.47280E-02   -0.24378E+00  4504   0.170E+00    0.293E-01
RMM:   2    -0.229924899295E+04   -0.52183E-02   -0.56783E-02  4445   0.241E-01    0.154E-01
RMM:   3    -0.229924881052E+04    0.18244E-03   -0.29620E-03  4497   0.105E-01    0.196E-01
RMM:   4    -0.229924842584E+04    0.38467E-03   -0.64152E-04  5448   0.220E-02    0.991E-02
RMM:   5    -0.229924841791E+04    0.79322E-05   -0.65963E-04  4825   0.214E-02    0.121E-01
RMM:   6    -0.229924823887E+04    0.17904E-03   -0.19235E-04  4488   0.142E-02    0.313E-02
RMM:   7    -0.229924823552E+04    0.33538E-05   -0.39393E-05  2898   0.469E-03
 100 F= -.23202947E+04 E0= -.23202947E+04  d E =-.812936E-03  mag=     4.0000
       N       E                     dE             d eps       ncg     rms          rms(c)
DAV:   1    -0.229924792277E+04    0.31610E-03   -0.44949E-01  4528   0.732E-01    0.123E-01
RMM:   2    -0.229924885418E+04   -0.93141E-03   -0.10190E-02  4478   0.103E-01    0.647E-02
RMM:   3    -0.229924883245E+04    0.21730E-04   -0.60690E-04  4439   0.495E-02    0.842E-02
RMM:   4    -0.229924876541E+04    0.67039E-04   -0.10881E-04  3936   0.929E-03    0.440E-02
RMM:   5    -0.229924876070E+04    0.47114E-05   -0.10935E-04  4113   0.994E-03    0.505E-02
[...]
       N       E                     dE             d eps       ncg     rms          rms(c)
DAV:   1    -0.229933794333E+04    0.29170E-04   -0.84101E-03  4720   0.104E-01    0.280E-02
RMM:   2    -0.229933796197E+04   -0.18644E-04   -0.24198E-04  4797   0.178E-02    0.244E-02
RMM:   3    -0.229933796367E+04   -0.16928E-05   -0.32494E-05  2913   0.843E-03
 999 F= -.23204049E+04 E0= -.23204049E+04  d E =-.117591E-03  mag=     4.0000
       N       E                     dE             d eps       ncg     rms          rms(c)
DAV:   1    -0.229933795455E+04    0.74265E-05   -0.29563E-02  4528   0.191E-01    0.395E-02
RMM:   2    -0.229933803432E+04   -0.79770E-04   -0.84113E-04  5103   0.295E-02    0.325E-02
RMM:   3    -0.229933803028E+04    0.40427E-05   -0.65155E-05  3216   0.111E-02
1000 F= -.23204050E+04 E0= -.23204050E+04  d E =-.911573E-04  mag=     4.0000
       N       E                     dE             d eps       ncg     rms          rms(c)
DAV:   1    -0.229933800111E+04    0.33209E-04   -0.61386E-03  4848   0.881E-02    0.250E-02
RMM:   2    -0.229933803281E+04   -0.31702E-04   -0.18894E-04  4618   0.150E-02    0.465E-02
RMM:   3    -0.229933800980E+04    0.23007E-04   -0.32700E-05  2885   0.756E-03    0.171E-02
RMM:   4    -0.229933800770E+04    0.20997E-05   -0.91508E-06  2859   0.299E-03
1001 F= -.23204050E+04 E0= -.23204050E+04  d E =-.798318E-04  mag=     4.0000
       N       E                     dE             d eps       ncg     rms          rms(c)
DAV:   1    -0.229933804142E+04   -0.31622E-04   -0.32432E-02  4528   0.200E-01    0.438E-02
RMM:   2    -0.229933812016E+04   -0.78735E-04   -0.89831E-04  4907   0.302E-02    0.214E-02
RMM:   3    -0.229933811686E+04    0.32991E-05   -0.63009E-05  3581   0.144E-02
1002 F= -.23204051E+04 E0= -.23204051E+04  d E =-.134894E-03  mag=     4.0000
       N       E                     dE             d eps       ncg     rms          rms(c)
DAV:   1    -0.229933808791E+04    0.32247E-04   -0.10241E-02  4576   0.113E-01    0.301E-02
RMM:   2    -0.229933812139E+04   -0.33473E-04   -0.29721E-04  4822   0.180E-02    0.406E-02
RMM:   3    -0.229933810843E+04    0.12953E-04   -0.40400E-05  2910   0.977E-03    0.250E-02
RMM:   4    -0.229933809939E+04    0.90456E-05   -0.86305E-06  2846   0.313E-03
1003 F= -.23204051E+04 E0= -.23204051E+04  d E =-.131946E-03  mag=     4.0000
       N       E                     dE             d eps       ncg     rms          rms(c)
DAV:   1    -0.229933811824E+04   -0.98033E-05   -0.32641E-02  4504   0.200E-01    0.456E-02
RMM:   2    -0.229933823930E+04   -0.12107E-03   -0.93752E-04  4855   0.305E-02    0.653E-02
RMM:   3    -0.229933819728E+04    0.42020E-04   -0.10284E-04  3550   0.148E-02    0.339E-02
RMM:   4    -0.229933818242E+04    0.14862E-04   -0.14397E-05  2870   0.383E-03    0.156E-02
RMM:   5    -0.229933818255E+04   -0.12867E-06   -0.83132E-06  2857   0.265E-03
1004 F= -.23204052E+04 E0= -.23204052E+04  d E =-.105516E-03  mag=     4.0000
       N       E                     dE             d eps       ncg     rms          rms(c)
DAV:   1    -0.229933816346E+04    0.18959E-04   -0.50853E-03  4880   0.792E-02    0.198E-02
RMM:   2    -0.229933818559E+04   -0.22131E-04   -0.14851E-04  4524   0.130E-02    0.323E-02
RMM:   3    -0.229933817444E+04    0.11156E-04   -0.23159E-05  2887   0.696E-03    0.135E-02
RMM:   4    -0.229933817344E+04    0.10012E-05   -0.51915E-06  2809   0.218E-03
1005 F= -.23204052E+04 E0= -.23204052E+04  d E =-.105395E-03  mag=     4.0000
       N       E                     dE             d eps       ncg     rms          rms(c)
DAV:   1    -0.229933819656E+04   -0.22123E-04   -0.36925E-02  4504   0.213E-01    0.459E-02
RMM:   2    -0.229933828498E+04   -0.88421E-04   -0.10092E-03  4817   0.322E-02    0.227E-02
RMM:   3    -0.229933828509E+04   -0.10803E-06   -0.68206E-05  3712   0.155E-02
1006 F= -.23204054E+04 E0= -.23204054E+04  d E =-.122017E-03  mag=     4.0000
       N       E                     dE             d eps       ncg     rms          rms(c)
DAV:   1    -0.229933825534E+04    0.29637E-04   -0.85622E-03  4592   0.104E-01    0.277E-02
RMM:   2    -0.229933827578E+04   -0.20434E-04   -0.23400E-04  4716   0.164E-02    0.289E-02
RMM:   3    -0.229933827388E+04    0.18987E-05   -0.32008E-05  2911   0.934E-03
1007 F= -.23204053E+04 E0= -.23204053E+04  d E =-.115846E-03  mag=     4.0000
       N       E                     dE             d eps       ncg     rms          rms(c)
DAV:   1    -0.229933825661E+04    0.19169E-04   -0.39725E-02  4504   0.220E-01    0.454E-02
RMM:   2    -0.229933834481E+04   -0.88198E-04   -0.10206E-03  4745   0.326E-02    0.238E-02
RMM:   3    -0.229933834240E+04    0.24050E-05   -0.60331E-05  3383   0.132E-02
1008 F= -.23204054E+04 E0= -.23204054E+04  d E =-.923966E-04  mag=     4.0000
       N       E                     dE             d eps       ncg     rms          rms(c)
DAV:   1    -0.229933830700E+04    0.37808E-04   -0.86087E-03  4768   0.104E-01    0.270E-02
RMM:   2    -0.229933833253E+04   -0.25527E-04   -0.22721E-04  4713   0.164E-02    0.375E-02
RMM:   3    -0.229933832113E+04    0.11400E-04   -0.33216E-05  2889   0.922E-03    0.227E-02
RMM:   4    -0.229933831348E+04    0.76504E-05   -0.78292E-06  2839   0.305E-03
1009 F= -.23204054E+04 E0= -.23204054E+04  d E =-.746565E-04  mag=     4.0000
       N       E                     dE             d eps       ncg     rms          rms(c)
DAV:   1    -0.229933835210E+04   -0.30973E-04   -0.30443E-02  4504   0.193E-01    0.421E-02
RMM:   2    -0.229933845078E+04   -0.98679E-04   -0.83015E-04  4908   0.292E-02    0.523E-02
RMM:   3    -0.229933842700E+04    0.23779E-04   -0.89518E-05  3589   0.144E-02    0.338E-02
RMM:   4    -0.229933841182E+04    0.15178E-04   -0.12715E-05  2866   0.377E-03    0.115E-02
RMM:   5    -0.229933841255E+04   -0.73298E-06   -0.86453E-06  2854   0.277E-03
1010 F= -.23204055E+04 E0= -.23204055E+04  d E =-.123649E-03  mag=     4.0000
       N       E                     dE             d eps       ncg     rms          rms(c)
DAV:   1    -0.229933835553E+04    0.56295E-04   -0.25641E-02  4560   0.177E-01    0.369E-02
RMM:   2    -0.229933842245E+04   -0.66926E-04   -0.67479E-04  4964   0.268E-02    0.303E-02
RMM:   3    -0.229933842792E+04   -0.54730E-05   -0.66386E-05  3505   0.137E-02
1011 F= -.23204056E+04 E0= -.23204056E+04  d E =-.161713E-03  mag=     4.0000
       N       E                     dE             d eps       ncg     rms          rms(c)
DAV:   1    -0.229933846022E+04   -0.37767E-04   -0.26818E-02  4524   0.183E-01    0.427E-02
RMM:   2    -0.229933853675E+04   -0.76533E-04   -0.83974E-04  5014   0.293E-02    0.321E-02
RMM:   3    -0.229933854373E+04   -0.69838E-05   -0.75387E-05  3448   0.127E-02
1012 F= -.23204057E+04 E0= -.23204057E+04  d E =-.126083E-03  mag=     4.0000
       N       E                     dE             d eps       ncg     rms          rms(c)
DAV:   1    -0.229933849257E+04    0.44177E-04   -0.15219E-02  4656   0.139E-01    0.353E-02
RMM:   2    -0.229933852781E+04   -0.35240E-04   -0.46438E-04  4990   0.222E-02    0.235E-02
RMM:   3    -0.229933852527E+04    0.25468E-05   -0.41790E-05  2969   0.948E-03
1013 F= -.23204057E+04 E0= -.23204057E+04  d E =-.115418E-03  mag=     4.0000
       N       E                     dE             d eps       ncg     rms          rms(c)
DAV:   1    -0.229933852693E+04    0.88380E-06   -0.29096E-02  4516   0.191E-01    0.439E-02
RMM:   2    -0.229933860220E+04   -0.75267E-04   -0.87337E-04  5055   0.301E-02    0.234E-02
RMM:   3    -0.229933860400E+04   -0.18048E-05   -0.64518E-05  3379   0.129E-02
1014 F= -.23204058E+04 E0= -.23204058E+04  d E =-.990114E-04  mag=     4.0000
       N       E                     dE             d eps       ncg     rms          rms(c)
DAV:   1    -0.229933858051E+04    0.21682E-04   -0.34692E-03  5072   0.673E-02    0.210E-02
RMM:   2    -0.229933859072E+04   -0.10207E-04   -0.10717E-04  4330   0.118E-02    0.251E-02
RMM:   3    -0.229933858667E+04    0.40526E-05   -0.18098E-05  2888   0.600E-03
1015 F= -.23204058E+04 E0= -.23204058E+04  d E =-.886986E-04  mag=     4.0000
       N       E                     dE             d eps       ncg     rms          rms(c)
DAV:   1    -0.229933861947E+04   -0.28749E-04   -0.29593E-02  4528   0.192E-01    0.483E-02
RMM:   2    -0.229933870531E+04   -0.85836E-04   -0.90803E-04  5171   0.303E-02    0.355E-02
RMM:   3    -0.229933871464E+04   -0.93349E-05   -0.81082E-05  3304   0.117E-02
1016 F= -.23204059E+04 E0= -.23204059E+04  d E =-.146465E-03  mag=     4.0000
       N       E                     dE             d eps       ncg     rms          rms(c)
DAV:   1    -0.229933867173E+04    0.33573E-04   -0.32401E-03  5008   0.655E-02    0.220E-02
RMM:   2    -0.229933868245E+04   -0.10721E-04   -0.10560E-04  4244   0.115E-02    0.290E-02
RMM:   3    -0.229933867619E+04    0.62660E-05   -0.19902E-05  2882   0.585E-03
1017 F= -.23204059E+04 E0= -.23204059E+04  d E =-.114129E-03  mag=     4.0000
       N       E                     dE             d eps       ncg     rms          rms(c)
DAV:   1    -0.229933867848E+04    0.39699E-05   -0.28628E-02  4528   0.189E-01    0.454E-02
RMM:   2    -0.229933876474E+04   -0.86260E-04   -0.91753E-04  5235   0.296E-02    0.337E-02
RMM:   3    -0.229933876772E+04   -0.29750E-05   -0.79266E-05  3208   0.117E-02
1018 F= -.23204060E+04 E0= -.23204060E+04  d E =-.100908E-03  mag=     4.0000
       N       E                     dE             d eps       ncg     rms          rms(c)
DAV:   1    -0.229933874129E+04    0.23457E-04   -0.41023E-04  5464   0.246E-02    0.134E-02
RMM:   2    -0.229933874174E+04   -0.45460E-06   -0.18366E-05  2825   0.491E-03
1019 F= -.23204060E+04 E0= -.23204060E+04  d E =-.759960E-04  mag=     4.0000
       N       E                     dE             d eps       ncg     rms          rms(c)
DAV:   1    -0.229933874386E+04   -0.25740E-05   -0.29123E-02  4504   0.191E-01    0.470E-02
RMM:   2    -0.229933882250E+04   -0.78634E-04   -0.89568E-04  5567   0.308E-02    0.268E-02
RMM:   3    -0.229933883228E+04   -0.97862E-05   -0.86938E-05  3711   0.145E-02
1020 F= -.23204061E+04 E0= -.23204061E+04  d E =-.123026E-03  mag=     4.0000
       N       E                     dE             d eps       ncg     rms          rms(c)
DAV:   1    -0.229933880263E+04    0.19869E-04   -0.41740E-04  5528   0.248E-02    0.138E-02
RMM:   2    -0.229933880382E+04   -0.11899E-05   -0.17613E-05  2866   0.482E-03
1021 F= -.23204061E+04 E0= -.23204061E+04  d E =-.981688E-04  mag=     4.0000
       N       E                     dE             d eps       ncg     rms          rms(c)
DAV:   1    -0.229933880860E+04   -0.59738E-05   -0.23783E-02  4504   0.172E-01    0.422E-02
RMM:   2    -0.229933887515E+04   -0.66550E-04   -0.70642E-04  5337   0.277E-02    0.332E-02
RMM:   3    -0.229933888220E+04   -0.70459E-05   -0.73088E-05  3450   0.123E-02
1022 F= -.23204062E+04 E0= -.23204062E+04  d E =-.106364E-03  mag=     4.0000
       N       E                     dE             d eps       ncg     rms          rms(c)
DAV:   1    -0.229933885226E+04    0.22890E-04   -0.28443E-04  5288   0.199E-02    0.126E-02
RMM:   2    -0.229933885355E+04   -0.12856E-05   -0.13296E-05  2762   0.408E-03
1023 F= -.23204062E+04 E0= -.23204062E+04  d E =-.803728E-04  mag=     4.0000
       N       E                     dE             d eps       ncg     rms          rms(c)
DAV:   1    -0.229933887351E+04   -0.21247E-04   -0.23747E-02  4504   0.172E-01    0.406E-02
RMM:   2    -0.229933893480E+04   -0.61291E-04   -0.72167E-04  5218   0.274E-02    0.185E-02
RMM:   3    -0.229933892817E+04    0.66256E-05   -0.48749E-05  3412   0.128E-02
1024 F= -.23204062E+04 E0= -.23204062E+04  d E =-.762300E-04  mag=     4.0000
       N       E                     dE             d eps       ncg     rms          rms(c)
DAV:   1    -0.229933892602E+04    0.87805E-05   -0.89644E-04  5496   0.348E-02    0.207E-02
RMM:   2    -0.229933896964E+04   -0.43622E-04   -0.69132E-05  3029   0.743E-03    0.648E-02
RMM:   3    -0.229933892261E+04    0.47032E-04   -0.24782E-05  2782   0.456E-03    0.730E-03
RMM:   4    -0.229933892145E+04    0.11553E-05   -0.53284E-06  2772   0.212E-03
1025 F= -.23204062E+04 E0= -.23204062E+04  d E =-.698276E-04  mag=     4.0000
       N       E                     dE             d eps       ncg     rms          rms(c)
DAV:   1    -0.229933892942E+04   -0.68157E-05   -0.21780E-02  4528   0.165E-01    0.368E-02
RMM:   2    -0.229933900131E+04   -0.71883E-04   -0.69146E-04  5219   0.260E-02    0.354E-02
RMM:   3    -0.229933899873E+04    0.25793E-05   -0.62809E-05  3149   0.116E-02
1026 F= -.23204063E+04 E0= -.23204063E+04  d E =-.888355E-04  mag=     4.0000
       N       E                     dE             d eps       ncg     rms          rms(c)
DAV:   1    -0.229933897635E+04    0.24959E-04   -0.19629E-03  4928   0.508E-02    0.161E-02
RMM:   2    -0.229933898129E+04   -0.49443E-05   -0.63146E-05  3430   0.922E-03
1027 F= -.23204063E+04 E0= -.23204063E+04  d E =-.748900E-04  mag=     4.0000
       N       E                     dE             d eps       ncg     rms          rms(c)
DAV:   1    -0.229933897546E+04    0.88499E-06   -0.23131E-02  4484   0.170E-01    0.390E-02
RMM:   2    -0.229933904288E+04   -0.67418E-04   -0.74677E-04  5498   0.293E-02    0.261E-02
RMM:   3    -0.229933904431E+04   -0.14328E-05   -0.64252E-05  3393   0.117E-02
1028 F= -.23204064E+04 E0= -.23204064E+04  d E =-.933911E-04  mag=     4.0000
       N       E                     dE             d eps       ncg     rms          rms(c)
DAV:   1    -0.229933902214E+04    0.20741E-04   -0.13139E-03  5528   0.423E-02    0.168E-02
RMM:   2    -0.229933902982E+04   -0.76819E-05   -0.46137E-05  3147   0.815E-03
1029 F= -.23204064E+04 E0= -.23204064E+04  d E =-.861287E-04  mag=     4.0000
       N       E                     dE             d eps       ncg     rms          rms(c)
DAV:   1    -0.229933900495E+04    0.17190E-04   -0.23338E-02  4484   0.171E-01    0.390E-02
RMM:   2    -0.229933907443E+04   -0.69474E-04   -0.75509E-04  5873   0.296E-02    0.287E-02
RMM:   3    -0.229933908151E+04   -0.70832E-05   -0.64137E-05  3326   0.103E-02
1030 F= -.23204065E+04 E0= -.23204065E+04  d E =-.848453E-04  mag=     4.0000
       N       E                     dE             d eps       ncg     rms          rms(c)
DAV:   1    -0.229933905295E+04    0.21480E-04   -0.78716E-04  5592   0.329E-02    0.143E-02
RMM:   2    -0.229933905515E+04   -0.22027E-05   -0.26029E-05  2930   0.631E-03
1031 F= -.23204064E+04 E0= -.23204064E+04  d E =-.644190E-04  mag=     4.0000
       N       E                     dE             d eps       ncg     rms          rms(c)
DAV:   1    -0.229933908188E+04   -0.28933E-04   -0.18577E-02  4516   0.152E-01    0.331E-02
RMM:   2    -0.229933914231E+04   -0.60432E-04   -0.57210E-04  5746   0.255E-02    0.359E-02
RMM:   3    -0.229933913492E+04    0.73926E-05   -0.51877E-05  3184   0.912E-03
1032 F= -.23204065E+04 E0= -.23204065E+04  d E =-.787108E-04  mag=     4.0000
       N       E                     dE             d eps       ncg     rms          rms(c)
DAV:   1    -0.229933912312E+04    0.19191E-04   -0.36696E-03  4608   0.684E-02    0.191E-02
RMM:   2    -0.229933913728E+04   -0.14161E-04   -0.11063E-04  4175   0.123E-02    0.296E-02
RMM:   3    -0.229933912905E+04    0.82356E-05   -0.18269E-05  2876   0.558E-03
1033 F= -.23204065E+04 E0= -.23204065E+04  d E =-.723704E-04  mag=     4.0000
       N       E                     dE             d eps       ncg     rms          rms(c)
DAV:   1    -0.229933915443E+04   -0.17154E-04   -0.19764E-02  4516   0.156E-01    0.341E-02
RMM:   2    -0.229933921538E+04   -0.60943E-04   -0.60344E-04  5445   0.248E-02    0.315E-02
RMM:   3    -0.229933921171E+04    0.36676E-05   -0.49300E-05  2951   0.895E-03
1034 F= -.23204066E+04 E0= -.23204066E+04  d E =-.968423E-04  mag=     4.0000
       N       E                     dE             d eps       ncg     rms          rms(c)
DAV:   1    -0.229933918636E+04    0.29019E-04   -0.66367E-03  4560   0.917E-02    0.234E-02
RMM:   2    -0.229933920891E+04   -0.22549E-04   -0.20474E-04  4894   0.158E-02    0.315E-02
RMM:   3    -0.229933920112E+04    0.77848E-05   -0.26694E-05  2891   0.703E-03
1035 F= -.23204066E+04 E0= -.23204066E+04  d E =-.945213E-04  mag=     4.0000
       N       E                     dE             d eps       ncg     rms          rms(c)
DAV:   1    -0.229933919380E+04    0.15112E-04   -0.24607E-02  4504   0.175E-01    0.374E-02
RMM:   2    -0.229933926564E+04   -0.71844E-04   -0.75381E-04  5339   0.278E-02    0.296E-02
RMM:   3    -0.229933926379E+04    0.18484E-05   -0.56715E-05  3057   0.958E-03
1036 F= -.23204067E+04 E0= -.23204067E+04  d E =-.841992E-04  mag=     4.0000
       N       E                     dE             d eps       ncg     rms          rms(c)
DAV:   1    -0.229933923552E+04    0.30118E-04   -0.50095E-03  4736   0.801E-02    0.210E-02
RMM:   2    -0.229933924871E+04   -0.13192E-04   -0.15153E-04  4679   0.139E-02    0.210E-02
RMM:   3    -0.229933924647E+04    0.22391E-05   -0.20220E-05  2902   0.650E-03
1037 F= -.23204067E+04 E0= -.23204067E+04  d E =-.766505E-04  mag=     4.0000
       N       E                     dE             d eps       ncg     rms          rms(c)
DAV:   1    -0.229933925068E+04   -0.19656E-05   -0.22329E-02  4504   0.167E-01    0.345E-02
RMM:   2    -0.229933931728E+04   -0.66602E-04   -0.68538E-04  5272   0.265E-02    0.291E-02
RMM:   3    -0.229933931603E+04    0.12516E-05   -0.55040E-05  3042   0.982E-03
1038 F= -.23204068E+04 E0= -.23204068E+04  d E =-.907292E-04  mag=     4.0000
       N       E                     dE             d eps       ncg     rms          rms(c)
DAV:   1    -0.229933928636E+04    0.30924E-04   -0.73805E-03  4560   0.966E-02    0.237E-02
RMM:   2    -0.229933930787E+04   -0.21512E-04   -0.22300E-04  4817   0.162E-02    0.260E-02
RMM:   3    -0.229933930421E+04    0.36550E-05   -0.27107E-05  2899   0.746E-03
1039 F= -.23204068E+04 E0= -.23204068E+04  d E =-.911396E-04  mag=     4.0000
       N       E                     dE             d eps       ncg     rms          rms(c)
DAV:   1    -0.229933931339E+04   -0.55166E-05   -0.23404E-02  4504   0.171E-01    0.357E-02
RMM:   2    -0.229933938848E+04   -0.75099E-04   -0.72647E-04  5175   0.269E-02    0.372E-02
RMM:   3    -0.229933938023E+04    0.82522E-05   -0.65951E-05  3052   0.101E-02
1040 F= -.23204069E+04 E0= -.23204069E+04  d E =-.895489E-04  mag=     4.0000
       N       E                     dE             d eps       ncg     rms          rms(c)
DAV:   1    -0.229933935740E+04    0.31080E-04   -0.74528E-03  4592   0.970E-02    0.254E-02
RMM:   2    -0.229933938714E+04   -0.29735E-04   -0.23896E-04  4804   0.163E-02    0.387E-02
RMM:   3    -0.229933937274E+04    0.14405E-04   -0.33454E-05  2890   0.764E-03    0.194E-02
RMM:   4    -0.229933937061E+04    0.21206E-05   -0.96609E-06  2862   0.306E-03
1041 F= -.23204069E+04 E0= -.23204069E+04  d E =-.876054E-04  mag=     4.0000
       N       E                     dE             d eps       ncg     rms          rms(c)
DAV:   1    -0.229933939436E+04   -0.21626E-04   -0.22629E-02  4516   0.168E-01    0.356E-02
RMM:   2    -0.229933945496E+04   -0.60602E-04   -0.68801E-04  5180   0.260E-02    0.178E-02
RMM:   3    -0.229933945046E+04    0.45042E-05   -0.44958E-05  3144   0.117E-02
1042 F= -.23204070E+04 E0= -.23204070E+04  d E =-.961592E-04  mag=     4.0000
       N       E                     dE             d eps       ncg     rms          rms(c)
DAV:   1    -0.229933942839E+04    0.26578E-04   -0.89138E-03  4608   0.106E-01    0.265E-02
RMM:   2    -0.229933945548E+04   -0.27090E-04   -0.28256E-04  5021   0.172E-02    0.267E-02
RMM:   3    -0.229933945067E+04    0.48006E-05   -0.32304E-05  2921   0.841E-03
1043 F= -.23204070E+04 E0= -.23204070E+04  d E =-.106705E-03  mag=     4.0000
