       N       E                     dE             d eps       ncg     rms          rms(c)
DAV:   1     0.128907324750E+05    0.12891E+05   -0.83444E+05  4488   0.144E+03
DAV:   2    -0.105031355733E+04   -0.13941E+05   -0.13334E+05  5104   0.330E+02
DAV:   3    -0.247288705606E+04   -0.14226E+04   -0.14073E+04  5408   0.112E+02
DAV:   4    -0.251895985074E+04   -0.46073E+02   -0.45843E+02  6784   0.304E+01
DAV:   5    -0.251972531779E+04   -0.76547E+00   -0.76437E+00  6160   0.344E+00    0.170E+02
RMM:   6    -0.149045237827E+04    0.10293E+04   -0.19371E+03  4424   0.384E+01    0.720E+01
RMM:   7    -0.165638175278E+04   -0.16593E+03   -0.29127E+02  4985   0.140E+01    0.471E+01
RMM:   8    -0.171184328856E+04   -0.55462E+02   -0.31692E+01  5273   0.640E+00    0.358E+01
RMM:   9    -0.185411489766E+04   -0.14227E+03   -0.73244E+01  5051   0.836E+00    0.362E+01
RMM:  10    -0.193367687083E+04   -0.79562E+02   -0.45748E+01  5231   0.611E+00    0.217E+01
RMM:  11    -0.203129294923E+04   -0.97616E+02   -0.40481E+01  4889   0.521E+00    0.174E+01
RMM:  12    -0.209173080975E+04   -0.60438E+02   -0.21914E+01  5067   0.385E+00    0.138E+01
RMM:  13    -0.220205884193E+04   -0.11033E+03   -0.73132E+01  4435   0.640E+00    0.984E+00
RMM:  14    -0.229165073387E+04   -0.89592E+02   -0.87173E+01  4462   0.631E+00    0.875E+00
RMM:  15    -0.230428604833E+04   -0.12635E+02   -0.14425E+01  4513   0.385E+00    0.586E+00
RMM:  16    -0.231165165028E+04   -0.73656E+01   -0.84366E+00  4440   0.172E+00    0.375E+00
RMM:  17    -0.231489777184E+04   -0.32461E+01   -0.27854E+00  4863   0.160E+00    0.172E+00
RMM:  18    -0.231553823475E+04   -0.64046E+00   -0.80415E-01  5049   0.498E-01    0.864E-01
RMM:  19    -0.231576449716E+04   -0.22626E+00   -0.18898E-01  4650   0.334E-01    0.499E-01
RMM:  20    -0.231585539060E+04   -0.90893E-01   -0.61792E-02  4781   0.168E-01    0.299E-01
RMM:  21    -0.231590213363E+04   -0.46743E-01   -0.21687E-02  4478   0.116E-01    0.178E-01
RMM:  22    -0.231592262576E+04   -0.20492E-01   -0.72786E-03  4588   0.730E-02    0.120E-01
RMM:  23    -0.231594028326E+04   -0.17657E-01   -0.50720E-03  4440   0.555E-02    0.733E-02
RMM:  24    -0.231595519032E+04   -0.14907E-01   -0.46943E-03  4430   0.498E-02    0.500E-02
RMM:  25    -0.231595948418E+04   -0.42939E-02   -0.14255E-03  4560   0.342E-02    0.287E-02
RMM:  26    -0.231596201145E+04   -0.25273E-02   -0.92477E-04  4080   0.191E-02    0.149E-02
RMM:  27    -0.231596249867E+04   -0.48722E-03   -0.18463E-04  3795   0.159E-02    0.829E-03
RMM:  28    -0.231596269170E+04   -0.19303E-03   -0.72898E-05  3530   0.612E-03    0.508E-03
RMM:  29    -0.231596280649E+04   -0.11480E-03   -0.26067E-05  3101   0.585E-03    0.273E-03
RMM:  30    -0.231596285136E+04   -0.44864E-04   -0.13916E-05  2921   0.337E-03    0.164E-03
RMM:  31    -0.231596286259E+04   -0.11229E-04   -0.51396E-06  2809   0.297E-03    0.106E-03
RMM:  32    -0.231596286609E+04   -0.35071E-05   -0.28898E-06  2428   0.190E-03
   1 F= -.23368322E+04 E0= -.23368322E+04  d E =-.233683E+04  mag=     6.0000
       N       E                     dE             d eps       ncg     rms          rms(c)
DAV:   1    -0.231595148399E+04    0.11379E-01   -0.61306E+00  5168   0.175E+00    0.726E-01
RMM:   2    -0.231607709084E+04   -0.12561E+00   -0.13007E+00  6079   0.440E-01    0.464E-01
RMM:   3    -0.231608934024E+04   -0.12249E-01   -0.14393E-01  5498   0.226E-01    0.394E-01
RMM:   4    -0.231608925000E+04    0.90234E-04   -0.11988E-02  5526   0.358E-02    0.286E-01
RMM:   5    -0.231608843243E+04    0.81758E-03   -0.18518E-03  5051   0.200E-02    0.168E-01
RMM:   6    -0.231608836564E+04    0.66786E-04   -0.12229E-03  4832   0.163E-02    0.140E-01
RMM:   7    -0.231608818610E+04    0.17954E-03   -0.56971E-04  4176   0.125E-02    0.511E-02
RMM:   8    -0.231608815758E+04    0.28523E-04   -0.65205E-05  2908   0.610E-03    0.256E-02
RMM:   9    -0.231608815206E+04    0.55204E-05   -0.33221E-05  2896   0.445E-03
   2 F= -.23369570E+04 E0= -.23369570E+04  d E =-.124762E+00  mag=     6.0000
       N       E                     dE             d eps       ncg     rms          rms(c)
DAV:   1    -0.231600746997E+04    0.80688E-01   -0.54498E+00  4704   0.166E+00    0.690E-01
RMM:   2    -0.231612077679E+04   -0.11331E+00   -0.11748E+00  5959   0.430E-01    0.463E-01
RMM:   3    -0.231613207503E+04   -0.11298E-01   -0.13215E-01  5355   0.243E-01    0.396E-01
RMM:   4    -0.231613164253E+04    0.43250E-03   -0.10698E-02  5363   0.353E-02    0.257E-01
RMM:   5    -0.231613109179E+04    0.55073E-03   -0.19590E-03  5122   0.204E-02    0.202E-01
RMM:   6    -0.231613085282E+04    0.23897E-03   -0.12575E-03  4698   0.159E-02    0.137E-01
RMM:   7    -0.231613071413E+04    0.13869E-03   -0.39543E-04  4395   0.114E-02    0.393E-02
RMM:   8    -0.231613069627E+04    0.17858E-04   -0.61721E-05  2923   0.684E-03    0.211E-02
RMM:   9    -0.231613069476E+04    0.15067E-05   -0.32895E-05  2908   0.424E-03
   3 F= -.23369993E+04 E0= -.23369993E+04  d E =-.167086E+00  mag=     6.0000
       N       E                     dE             d eps       ncg     rms          rms(c)
DAV:   1    -0.231612964219E+04    0.10541E-02   -0.21445E+00  4656   0.158E+00    0.648E-01
RMM:   2    -0.231614157763E+04   -0.11935E-01   -0.14898E-01  5623   0.297E-01    0.290E-01
RMM:   3    -0.231614144346E+04    0.13417E-03   -0.15304E-02  5186   0.125E-01    0.299E-01
RMM:   4    -0.231614052863E+04    0.91483E-03   -0.24369E-03  5478   0.361E-02    0.161E-01
RMM:   5    -0.231614042644E+04    0.10219E-03   -0.12882E-03  4768   0.272E-02    0.182E-01
RMM:   6    -0.231614007939E+04    0.34705E-03   -0.58967E-04  4972   0.171E-02    0.374E-02
RMM:   7    -0.231614004383E+04    0.35561E-04   -0.91981E-05  3810   0.988E-03    0.195E-02
RMM:   8    -0.231614002381E+04    0.20026E-04   -0.30934E-05  3161   0.526E-03    0.102E-02
RMM:   9    -0.231614001539E+04    0.84125E-05   -0.15188E-05  2911   0.443E-03
   4 F= -.23370085E+04 E0= -.23370085E+04  d E =-.922071E-02  mag=     6.0000
       N       E                     dE             d eps       ncg     rms          rms(c)
DAV:   1    -0.231614062224E+04   -0.59843E-03   -0.14699E-01  4764   0.413E-01    0.171E-01
RMM:   2    -0.231614145316E+04   -0.83092E-03   -0.10257E-02  5738   0.795E-02    0.768E-02
RMM:   3    -0.231614145315E+04    0.78726E-08   -0.10676E-03  4883   0.345E-02    0.819E-02
RMM:   4    -0.231614138679E+04    0.66357E-04   -0.15949E-04  3628   0.101E-02    0.433E-02
RMM:   5    -0.231614138100E+04    0.57912E-05   -0.93918E-05  3431   0.843E-03
   5 F= -.23370099E+04 E0= -.23370099E+04  d E =-.106129E-01  mag=     6.0000
       N       E                     dE             d eps       ncg     rms          rms(c)
DAV:   1    -0.231613263955E+04    0.87472E-02   -0.11548E+00  4560   0.995E-01    0.317E-01
RMM:   2    -0.231614909692E+04   -0.16457E-01   -0.17377E-01  6128   0.210E-01    0.181E-01
RMM:   3    -0.231615040362E+04   -0.13067E-02   -0.18077E-02  5565   0.791E-02    0.135E-01
RMM:   4    -0.231615040190E+04    0.17200E-05   -0.15609E-03  4016   0.165E-02    0.106E-01
RMM:   5    -0.231615033540E+04    0.66501E-04   -0.24350E-04  3389   0.958E-03    0.852E-02
RMM:   6    -0.231615026349E+04    0.71904E-04   -0.21092E-04  3924   0.972E-03    0.300E-02
RMM:   7    -0.231615025820E+04    0.52961E-05   -0.41235E-05  3007   0.654E-03
   6 F= -.23370189E+04 E0= -.23370189E+04  d E =-.898614E-02  mag=     6.0000
       N       E                     dE             d eps       ncg     rms          rms(c)
DAV:   1    -0.231608524369E+04    0.65020E-01   -0.46908E+00  4512   0.201E+00    0.636E-01
RMM:   2    -0.231615215857E+04   -0.66915E-01   -0.70844E-01  6115   0.422E-01    0.366E-01
RMM:   3    -0.231615773072E+04   -0.55721E-02   -0.74772E-02  5655   0.158E-01    0.287E-01
RMM:   4    -0.231615742999E+04    0.30073E-03   -0.64040E-03  5510   0.340E-02    0.179E-01
RMM:   5    -0.231615724185E+04    0.18814E-03   -0.11743E-03  4718   0.194E-02    0.177E-01
RMM:   6    -0.231615702531E+04    0.21654E-03   -0.70014E-04  4691   0.156E-02    0.908E-02
RMM:   7    -0.231615696620E+04    0.59107E-04   -0.13772E-04  3749   0.935E-03    0.234E-02
RMM:   8    -0.231615696265E+04    0.35533E-05   -0.25381E-05  2906   0.605E-03
   7 F= -.23370259E+04 E0= -.23370259E+04  d E =-.159230E-01  mag=     6.0000
       N       E                     dE             d eps       ncg     rms          rms(c)
DAV:   1    -0.231615496859E+04    0.19976E-02   -0.58349E-01  4592   0.717E-01    0.217E-01
RMM:   2    -0.231616253217E+04   -0.75636E-02   -0.80257E-02  6077   0.147E-01    0.123E-01
RMM:   3    -0.231616304921E+04   -0.51704E-03   -0.74611E-03  5279   0.520E-02    0.869E-02
RMM:   4    -0.231616303200E+04    0.17214E-04   -0.69981E-04  3509   0.119E-02    0.586E-02
RMM:   5    -0.231616299120E+04    0.40797E-04   -0.14100E-04  3663   0.890E-03    0.330E-02
RMM:   6    -0.231616299817E+04   -0.69735E-05   -0.55792E-05  2964   0.693E-03
   8 F= -.23370319E+04 E0= -.23370319E+04  d E =-.599414E-02  mag=     6.0000
       N       E                     dE             d eps       ncg     rms          rms(c)
DAV:   1    -0.231610170203E+04    0.61289E-01   -0.49141E+00  4512   0.208E+00    0.628E-01
RMM:   2    -0.231616519274E+04   -0.63491E-01   -0.67514E-01  6040   0.420E-01    0.347E-01
RMM:   3    -0.231617003471E+04   -0.48420E-02   -0.66597E-02  5563   0.150E-01    0.265E-01
RMM:   4    -0.231616984225E+04    0.19246E-03   -0.60895E-03  5454   0.343E-02    0.186E-01
RMM:   5    -0.231616951867E+04    0.32358E-03   -0.11940E-03  4699   0.215E-02    0.138E-01
RMM:   6    -0.231616947507E+04    0.43599E-04   -0.60086E-04  4442   0.160E-02    0.113E-01
RMM:   7    -0.231616937529E+04    0.99777E-04   -0.15352E-04  3714   0.919E-03    0.221E-02
RMM:   8    -0.231616937381E+04    0.14845E-05   -0.25268E-05  2907   0.595E-03
   9 F= -.23370381E+04 E0= -.23370381E+04  d E =-.122576E-01  mag=     6.0000
       N       E                     dE             d eps       ncg     rms          rms(c)
DAV:   1    -0.231616418770E+04    0.51876E-02   -0.79232E-01  4528   0.864E-01    0.290E-01
RMM:   2    -0.231617408689E+04   -0.98992E-02   -0.10689E-01  6052   0.179E-01    0.141E-01
RMM:   3    -0.231617492261E+04   -0.83572E-03   -0.11323E-02  5404   0.674E-02    0.110E-01
RMM:   4    -0.231617489373E+04    0.28884E-04   -0.99620E-04  4033   0.153E-02    0.753E-02
RMM:   5    -0.231617483287E+04    0.60857E-04   -0.19885E-04  4013   0.106E-02    0.463E-02
RMM:   6    -0.231617483890E+04   -0.60326E-05   -0.94893E-05  3055   0.794E-03
  10 F= -.23370434E+04 E0= -.23370434E+04  d E =-.524504E-02  mag=     6.0000
       N       E                     dE             d eps       ncg     rms          rms(c)
DAV:   1    -0.231613590414E+04    0.38929E-01   -0.30385E+00  4496   0.169E+00    0.568E-01
RMM:   2    -0.231617396146E+04   -0.38057E-01   -0.41139E-01  6026   0.351E-01    0.275E-01
RMM:   3    -0.231617722825E+04   -0.32668E-02   -0.44167E-02  5479   0.129E-01    0.213E-01
RMM:   4    -0.231617715132E+04    0.76938E-04   -0.39335E-03  5283   0.296E-02    0.151E-01
RMM:   5    -0.231617687357E+04    0.27775E-03   -0.68337E-04  4529   0.181E-02    0.736E-02
RMM:   6    -0.231617690303E+04   -0.29458E-04   -0.30808E-04  4237   0.135E-02    0.872E-02
RMM:   7    -0.231617684481E+04    0.58217E-04   -0.97293E-05  3204   0.815E-03    0.288E-02
RMM:   8    -0.231617683737E+04    0.74429E-05   -0.13739E-05  2876   0.436E-03
  11 F= -.23370449E+04 E0= -.23370449E+04  d E =-.679835E-02  mag=     6.0000
       N       E                     dE             d eps       ncg     rms          rms(c)
DAV:   1    -0.231617254474E+04    0.43001E-02   -0.36352E-01  4544   0.586E-01    0.196E-01
RMM:   2    -0.231617706814E+04   -0.45234E-02   -0.48841E-02  6018   0.122E-01    0.996E-02
RMM:   3    -0.231617745911E+04   -0.39097E-03   -0.53299E-03  5154   0.457E-02    0.765E-02
RMM:   4    -0.231617744916E+04    0.99461E-05   -0.45009E-04  3295   0.103E-02    0.568E-02
RMM:   5    -0.231617743226E+04    0.16901E-04   -0.98272E-05  3048   0.731E-03    0.507E-02
RMM:   6    -0.231617741723E+04    0.15024E-04   -0.65159E-05  3018   0.640E-03    0.235E-02
RMM:   7    -0.231617741302E+04    0.42139E-05   -0.16469E-05  2879   0.490E-03
  12 F= -.23370456E+04 E0= -.23370456E+04  d E =-.753030E-02  mag=     6.0000
       N       E                     dE             d eps       ncg     rms          rms(c)
DAV:   1    -0.231617132945E+04    0.60878E-02   -0.57614E-01  4512   0.675E-01    0.263E-01
RMM:   2    -0.231618174530E+04   -0.10416E-01   -0.11147E-01  6092   0.165E-01    0.135E-01
RMM:   3    -0.231618277177E+04   -0.10265E-02   -0.12969E-02  5392   0.636E-02    0.971E-02
RMM:   4    -0.231618280818E+04   -0.36418E-04   -0.10802E-03  3596   0.140E-02    0.798E-02
RMM:   5    -0.231618273205E+04    0.76132E-04   -0.15866E-04  3633   0.917E-03    0.338E-02
RMM:   6    -0.231618273381E+04   -0.17558E-05   -0.65176E-05  3137   0.717E-03
  13 F= -.23370510E+04 E0= -.23370510E+04  d E =-.531162E-02  mag=     6.0000
       N       E                     dE             d eps       ncg     rms          rms(c)
DAV:   1    -0.231616619964E+04    0.16532E-01   -0.91243E-01  4496   0.851E-01    0.334E-01
RMM:   2    -0.231618279102E+04   -0.16591E-01   -0.17789E-01  6157   0.209E-01    0.174E-01
RMM:   3    -0.231618448378E+04   -0.16928E-02   -0.20946E-02  5619   0.785E-02    0.143E-01
RMM:   4    -0.231618451915E+04   -0.35366E-04   -0.17538E-03  3982   0.174E-02    0.118E-01
RMM:   5    -0.231618441358E+04    0.10557E-03   -0.27961E-04  3938   0.105E-02    0.773E-02
RMM:   6    -0.231618438230E+04    0.31281E-04   -0.16425E-04  3219   0.883E-03    0.512E-02
RMM:   7    -0.231618436121E+04    0.21090E-04   -0.48371E-05  3004   0.661E-03    0.112E-02
RMM:   8    -0.231618436024E+04    0.97332E-06   -0.10788E-05  2868   0.452E-03
  14 F= -.23370526E+04 E0= -.23370526E+04  d E =-.692093E-02  mag=     6.0000
       N       E                     dE             d eps       ncg     rms          rms(c)
DAV:   1    -0.231617092315E+04    0.13438E-01   -0.79307E-01  4512   0.759E-01    0.303E-01
RMM:   2    -0.231618653980E+04   -0.15617E-01   -0.16648E-01  6182   0.188E-01    0.157E-01
RMM:   3    -0.231618813622E+04   -0.15964E-02   -0.19610E-02  5471   0.740E-02    0.113E-01
RMM:   4    -0.231618820351E+04   -0.67299E-04   -0.16048E-03  3575   0.153E-02    0.954E-02
RMM:   5    -0.231618811574E+04    0.87777E-04   -0.19489E-04  3492   0.910E-03    0.476E-02
RMM:   6    -0.231618813823E+04   -0.22495E-04   -0.11602E-04  3042   0.751E-03    0.673E-02
RMM:   7    -0.231618810173E+04    0.36504E-04   -0.52392E-05  2881   0.620E-03    0.916E-03
RMM:   8    -0.231618810187E+04   -0.13955E-06   -0.10688E-05  2876   0.361E-03
  15 F= -.23370564E+04 E0= -.23370564E+04  d E =-.381882E-02  mag=     6.0000
       N       E                     dE             d eps       ncg     rms          rms(c)
DAV:   1    -0.231616893268E+04    0.19169E-01   -0.94250E-01  4496   0.828E-01    0.330E-01
RMM:   2    -0.231618750716E+04   -0.18574E-01   -0.19806E-01  6170   0.204E-01    0.170E-01
RMM:   3    -0.231618940560E+04   -0.18984E-02   -0.23374E-02  5520   0.784E-02    0.119E-01
RMM:   4    -0.231618949167E+04   -0.86071E-04   -0.19188E-03  3830   0.166E-02    0.100E-01
RMM:   5    -0.231618937704E+04    0.11463E-03   -0.21172E-04  3717   0.930E-03    0.424E-02
RMM:   6    -0.231618936908E+04    0.79646E-05   -0.92068E-05  3591   0.750E-03
  16 F= -.23370577E+04 E0= -.23370577E+04  d E =-.516778E-02  mag=     6.0000
       N       E                     dE             d eps       ncg     rms          rms(c)
DAV:   1    -0.231617621981E+04    0.13157E-01   -0.91126E-01  4496   0.847E-01    0.305E-01
RMM:   2    -0.231619292258E+04   -0.16703E-01   -0.17555E-01  6145   0.195E-01    0.216E-01
RMM:   3    -0.231619439891E+04   -0.14763E-02   -0.18158E-02  5652   0.723E-02    0.202E-01
RMM:   4    -0.231619420612E+04    0.19280E-03   -0.16199E-03  3896   0.163E-02    0.965E-02
RMM:   5    -0.231619413099E+04    0.75129E-04   -0.29367E-04  3969   0.108E-02    0.649E-02
RMM:   6    -0.231619410568E+04    0.25306E-04   -0.16234E-04  3242   0.878E-03    0.394E-02
RMM:   7    -0.231619409158E+04    0.14102E-04   -0.34946E-05  2919   0.603E-03    0.118E-02
RMM:   8    -0.231619409105E+04    0.52802E-06   -0.86774E-06  2870   0.393E-03
  17 F= -.23370626E+04 E0= -.23370626E+04  d E =-.485759E-02  mag=     6.0000
       N       E                     dE             d eps       ncg     rms          rms(c)
DAV:   1    -0.231614662785E+04    0.47464E-01   -0.24767E+00  4472   0.139E+00    0.500E-01
RMM:   2    -0.231619184351E+04   -0.45216E-01   -0.47689E-01  6096   0.319E-01    0.307E-01
RMM:   3    -0.231619575344E+04   -0.39099E-02   -0.49101E-02  5684   0.116E-01    0.258E-01
RMM:   4    -0.231619560779E+04    0.14565E-03   -0.43698E-03  5053   0.261E-02    0.164E-01
RMM:   5    -0.231619540195E+04    0.20584E-03   -0.76361E-04  4583   0.163E-02    0.116E-01
RMM:   6    -0.231619532641E+04    0.75538E-04   -0.40645E-04  4137   0.119E-02    0.802E-02
RMM:   7    -0.231619527283E+04    0.53581E-04   -0.11431E-04  3368   0.827E-03    0.248E-02
RMM:   8    -0.231619526822E+04    0.46072E-05   -0.25284E-05  2891   0.548E-03
  18 F= -.23370640E+04 E0= -.23370640E+04  d E =-.626125E-02  mag=     6.0000
       N       E                     dE             d eps       ncg     rms          rms(c)
DAV:   1    -0.231619101976E+04    0.42531E-02   -0.24448E-01  4528   0.435E-01    0.155E-01
RMM:   2    -0.231619543646E+04   -0.44167E-02   -0.46514E-02  6117   0.101E-01    0.949E-02
RMM:   3    -0.231619579686E+04   -0.36040E-03   -0.47080E-03  4578   0.370E-02    0.696E-02
RMM:   4    -0.231619579917E+04   -0.23133E-05   -0.41231E-04  2984   0.847E-03    0.545E-02
RMM:   5    -0.231619578148E+04    0.17690E-04   -0.72451E-05  2906   0.564E-03    0.407E-02
RMM:   6    -0.231619576886E+04    0.12624E-04   -0.54304E-05  2966   0.545E-03    0.183E-02
RMM:   7    -0.231619576675E+04    0.21113E-05   -0.13166E-05  2893   0.422E-03
  19 F= -.23370644E+04 E0= -.23370644E+04  d E =-.668834E-02  mag=     6.0000
       N       E                     dE             d eps       ncg     rms          rms(c)
DAV:   1    -0.231618156557E+04    0.14203E-01   -0.98162E-01  4464   0.890E-01    0.308E-01
RMM:   2    -0.231619859664E+04   -0.17031E-01   -0.17830E-01  6132   0.197E-01    0.217E-01
RMM:   3    -0.231619996648E+04   -0.13698E-02   -0.18120E-02  5569   0.742E-02    0.180E-01
RMM:   4    -0.231619984089E+04    0.12559E-03   -0.16083E-03  3815   0.158E-02    0.966E-02
RMM:   5    -0.231619977463E+04    0.66264E-04   -0.26320E-04  3468   0.955E-03    0.794E-02
RMM:   6    -0.231619970825E+04    0.66379E-04   -0.20398E-04  3858   0.893E-03    0.350E-02
RMM:   7    -0.231619970141E+04    0.68352E-05   -0.40491E-05  2970   0.625E-03
  20 F= -.23370687E+04 E0= -.23370687E+04  d E =-.428893E-02  mag=     6.0000
       N       E                     dE             d eps       ncg     rms          rms(c)
DAV:   1    -0.231615457274E+04    0.45136E-01   -0.25279E+00  4440   0.143E+00    0.496E-01
RMM:   2    -0.231619848230E+04   -0.43910E-01   -0.45996E-01  6163   0.315E-01    0.359E-01
RMM:   3    -0.231620211251E+04   -0.36302E-02   -0.47882E-02  5767   0.120E-01    0.302E-01
RMM:   4    -0.231620170604E+04    0.40646E-03   -0.41842E-03  5128   0.257E-02    0.153E-01
RMM:   5    -0.231620155681E+04    0.14924E-03   -0.74851E-04  4487   0.146E-02    0.129E-01
RMM:   6    -0.231620138892E+04    0.16789E-03   -0.49296E-04  4545   0.122E-02    0.603E-02
RMM:   7    -0.231620136673E+04    0.22187E-04   -0.10384E-04  3361   0.836E-03    0.244E-02
RMM:   8    -0.231620136405E+04    0.26888E-05   -0.20423E-05  2887   0.502E-03
  21 F= -.23370709E+04 E0= -.23370709E+04  d E =-.651800E-02  mag=     6.0000
       N       E                     dE             d eps       ncg     rms          rms(c)
DAV:   1    -0.231619372163E+04    0.76451E-02   -0.67661E-01  4480   0.756E-01    0.246E-01
RMM:   2    -0.231620395711E+04   -0.10235E-01   -0.10717E-01  6155   0.160E-01    0.183E-01
RMM:   3    -0.231620474523E+04   -0.78812E-03   -0.11176E-02  5484   0.605E-02    0.137E-01
RMM:   4    -0.231620467781E+04    0.67424E-04   -0.10320E-03  3428   0.132E-02    0.775E-02
RMM:   5    -0.231620464229E+04    0.35513E-04   -0.16937E-04  3146   0.807E-03    0.680E-02
RMM:   6    -0.231620459276E+04    0.49531E-04   -0.13807E-04  3538   0.787E-03    0.273E-02
RMM:   7    -0.231620459041E+04    0.23544E-05   -0.27458E-05  2931   0.576E-03
  22 F= -.23370745E+04 E0= -.23370745E+04  d E =-.353580E-02  mag=     6.0000
       N       E                     dE             d eps       ncg     rms          rms(c)
DAV:   1    -0.231614513266E+04    0.59460E-01   -0.38399E+00  4448   0.180E+00    0.588E-01
RMM:   2    -0.231620330846E+04   -0.58176E-01   -0.60830E-01  6144   0.377E-01    0.457E-01
RMM:   3    -0.231620783615E+04   -0.45277E-02   -0.65523E-02  5770   0.150E-01    0.337E-01
RMM:   4    -0.231620737027E+04    0.46588E-03   -0.58999E-03  5383   0.315E-02    0.182E-01
RMM:   5    -0.231620717138E+04    0.19889E-03   -0.10383E-03  4737   0.175E-02    0.162E-01
RMM:   6    -0.231620689507E+04    0.27631E-03   -0.74177E-04  4816   0.149E-02    0.692E-02
RMM:   7    -0.231620686729E+04    0.27780E-04   -0.14755E-04  3763   0.102E-02    0.314E-02
RMM:   8    -0.231620686150E+04    0.57923E-05   -0.30529E-05  2908   0.531E-03
  23 F= -.23370775E+04 E0= -.23370775E+04  d E =-.653755E-02  mag=     6.0000
       N       E                     dE             d eps       ncg     rms          rms(c)
DAV:   1    -0.231620222525E+04    0.46420E-02   -0.57209E-01  4544   0.701E-01    0.227E-01
RMM:   2    -0.231620957208E+04   -0.73468E-02   -0.77799E-02  6111   0.143E-01    0.144E-01
RMM:   3    -0.231621019554E+04   -0.62347E-03   -0.81299E-03  5359   0.540E-02    0.106E-01
RMM:   4    -0.231621016958E+04    0.25965E-04   -0.79057E-04  3365   0.120E-02    0.694E-02
RMM:   5    -0.231621014430E+04    0.25277E-04   -0.15601E-04  3226   0.838E-03    0.617E-02
RMM:   6    -0.231621011698E+04    0.27321E-04   -0.93138E-05  3026   0.724E-03    0.335E-02
RMM:   7    -0.231621011115E+04    0.58249E-05   -0.28351E-05  2919   0.563E-03
  24 F= -.23370809E+04 E0= -.23370809E+04  d E =-.345296E-02  mag=     6.0000
       N       E                     dE             d eps       ncg     rms          rms(c)
DAV:   1    -0.231620001774E+04    0.10099E-01   -0.80715E-01  4456   0.832E-01    0.271E-01
RMM:   2    -0.231621039946E+04   -0.10382E-01   -0.10990E-01  6088   0.169E-01    0.175E-01
RMM:   3    -0.231621128698E+04   -0.88752E-03   -0.11579E-02  5492   0.657E-02    0.131E-01
RMM:   4    -0.231621123599E+04    0.50984E-04   -0.11343E-03  3746   0.143E-02    0.849E-02
RMM:   5    -0.231621119795E+04    0.38039E-04   -0.22449E-04  3519   0.977E-03    0.751E-02
RMM:   6    -0.231621115177E+04    0.46180E-04   -0.13666E-04  3319   0.817E-03    0.350E-02
RMM:   7    -0.231621114420E+04    0.75680E-05   -0.34406E-05  2928   0.615E-03
  25 F= -.23370822E+04 E0= -.23370822E+04  d E =-.472566E-02  mag=     6.0000
       N       E                     dE             d eps       ncg     rms          rms(c)
DAV:   1    -0.231620240239E+04    0.87494E-02   -0.73426E-01  4472   0.771E-01    0.269E-01
RMM:   2    -0.231621376710E+04   -0.11365E-01   -0.12082E-01  6122   0.168E-01    0.145E-01
RMM:   3    -0.231621484858E+04   -0.10815E-02   -0.13038E-02  5408   0.672E-02    0.943E-02
RMM:   4    -0.231621488945E+04   -0.40872E-04   -0.12189E-03  3680   0.144E-02    0.831E-02
RMM:   5    -0.231621482285E+04    0.66604E-04   -0.19052E-04  3567   0.943E-03    0.461E-02
RMM:   6    -0.231621483347E+04   -0.10625E-04   -0.10385E-04  3113   0.753E-03    0.568E-02
RMM:   7    -0.231621480706E+04    0.26407E-04   -0.40749E-05  2879   0.593E-03    0.907E-03
RMM:   8    -0.231621480683E+04    0.23583E-06   -0.78734E-06  2871   0.310E-03
  26 F= -.23370859E+04 E0= -.23370859E+04  d E =-.372177E-02  mag=     6.0000
       N       E                     dE             d eps       ncg     rms          rms(c)
DAV:   1    -0.231617413966E+04    0.40667E-01   -0.24428E+00  4464   0.141E+00    0.491E-01
RMM:   2    -0.231621198532E+04   -0.37846E-01   -0.40203E-01  6079   0.306E-01    0.269E-01
RMM:   3    -0.231621562473E+04   -0.36394E-02   -0.44345E-02  5522   0.120E-01    0.174E-01
RMM:   4    -0.231621574974E+04   -0.12501E-03   -0.40455E-03  4990   0.257E-02    0.145E-01
RMM:   5    -0.231621553330E+04    0.21644E-03   -0.60563E-04  4534   0.150E-02    0.796E-02
RMM:   6    -0.231621553326E+04    0.44776E-07   -0.30430E-04  4405   0.113E-02    0.876E-02
RMM:   7    -0.231621547422E+04    0.59040E-04   -0.10552E-04  2911   0.781E-03    0.208E-02
RMM:   8    -0.231621547089E+04    0.33277E-05   -0.16679E-05  2886   0.371E-03
  27 F= -.23370867E+04 E0= -.23370867E+04  d E =-.448222E-02  mag=     6.0000
       N       E                     dE             d eps       ncg     rms          rms(c)
DAV:   1    -0.231620967983E+04    0.57944E-02   -0.38251E-01  4528   0.557E-01    0.193E-01
RMM:   2    -0.231621559320E+04   -0.59134E-02   -0.62797E-02  6076   0.121E-01    0.102E-01
RMM:   3    -0.231621614376E+04   -0.55056E-03   -0.67029E-03  5006   0.476E-02    0.627E-02
RMM:   4    -0.231621615805E+04   -0.14291E-04   -0.60109E-04  3182   0.103E-02    0.509E-02
RMM:   5    -0.231621613747E+04    0.20582E-04   -0.10546E-04  3080   0.714E-03    0.369E-02
RMM:   6    -0.231621613090E+04    0.65662E-05   -0.51351E-05  2929   0.599E-03
  28 F= -.23370873E+04 E0= -.23370873E+04  d E =-.510591E-02  mag=     6.0000
       N       E                     dE             d eps       ncg     rms          rms(c)
DAV:   1    -0.231620455979E+04    0.11578E-01   -0.79104E-01  4472   0.772E-01    0.275E-01
RMM:   2    -0.231621841328E+04   -0.13853E-01   -0.14624E-01  6174   0.174E-01    0.150E-01
RMM:   3    -0.231621975930E+04   -0.13460E-02   -0.16133E-02  5376   0.699E-02    0.918E-02
RMM:   4    -0.231621982521E+04   -0.65906E-04   -0.14021E-03  3535   0.142E-02    0.909E-02
RMM:   5    -0.231621975184E+04    0.73362E-04   -0.18181E-04  3233   0.834E-03    0.536E-02
RMM:   6    -0.231621975098E+04    0.86107E-06   -0.11677E-04  3146   0.717E-03    0.521E-02
RMM:   7    -0.231621972513E+04    0.25857E-04   -0.48003E-05  2893   0.590E-03    0.861E-03
RMM:   8    -0.231621972469E+04    0.43672E-06   -0.82627E-06  2863   0.337E-03
  29 F= -.23370909E+04 E0= -.23370909E+04  d E =-.356528E-02  mag=     6.0000
       N       E                     dE             d eps       ncg     rms          rms(c)
DAV:   1    -0.231618265197E+04    0.37073E-01   -0.20307E+00  4464   0.124E+00    0.442E-01
RMM:   2    -0.231621821606E+04   -0.35564E-01   -0.37614E-01  6109   0.275E-01    0.241E-01
RMM:   3    -0.231622175789E+04   -0.35418E-02   -0.42566E-02  5542   0.111E-01    0.141E-01
RMM:   4    -0.231622191771E+04   -0.15981E-03   -0.35942E-03  4621   0.224E-02    0.122E-01
RMM:   5    -0.231622178079E+04    0.13691E-03   -0.42801E-04  4020   0.119E-02    0.771E-02
RMM:   6    -0.231622172347E+04    0.57323E-04   -0.23343E-04  4143   0.972E-03    0.280E-02
RMM:   7    -0.231622173052E+04   -0.70479E-05   -0.54161E-05  2891   0.719E-03
  30 F= -.23370928E+04 E0= -.23370928E+04  d E =-.551622E-02  mag=     6.0000
       N       E                     dE             d eps       ncg     rms          rms(c)
DAV:   1    -0.231620367085E+04    0.18053E-01   -0.10997E+00  4472   0.912E-01    0.327E-01
RMM:   2    -0.231622286367E+04   -0.19193E-01   -0.20285E-01  6082   0.203E-01    0.196E-01
RMM:   3    -0.231622462099E+04   -0.17573E-02   -0.21227E-02  5558   0.795E-02    0.139E-01
RMM:   4    -0.231622467297E+04   -0.51980E-04   -0.19400E-03  3921   0.163E-02    0.111E-01
RMM:   5    -0.231622458286E+04    0.90103E-04   -0.31179E-04  3674   0.106E-02    0.739E-02
RMM:   6    -0.231622456790E+04    0.14968E-04   -0.18767E-04  3669   0.864E-03    0.638E-02
RMM:   7    -0.231622453678E+04    0.31116E-04   -0.67772E-05  2902   0.662E-03    0.255E-02
RMM:   8    -0.231622453166E+04    0.51169E-05   -0.15060E-05  2886   0.361E-03
  31 F= -.23370958E+04 E0= -.23370958E+04  d E =-.299514E-02  mag=     6.0000
       N       E                     dE             d eps       ncg     rms          rms(c)
DAV:   1    -0.231621735871E+04    0.71781E-02   -0.38603E-01  4552   0.539E-01    0.193E-01
RMM:   2    -0.231622409695E+04   -0.67382E-02   -0.71003E-02  6090   0.120E-01    0.117E-01
RMM:   3    -0.231622469212E+04   -0.59517E-03   -0.71586E-03  4961   0.449E-02    0.886E-02
RMM:   4    -0.231622469808E+04   -0.59603E-05   -0.67707E-04  3058   0.990E-03    0.671E-02
RMM:   5    -0.231622466289E+04    0.35192E-04   -0.11092E-04  2983   0.662E-03    0.432E-02
RMM:   6    -0.231622465425E+04    0.86448E-05   -0.68182E-05  2960   0.604E-03
  32 F= -.23370961E+04 E0= -.23370961E+04  d E =-.322818E-02  mag=     6.0000
       N       E                     dE             d eps       ncg     rms          rms(c)
DAV:   1    -0.231621553989E+04    0.91230E-02   -0.61348E-01  4440   0.697E-01    0.252E-01
RMM:   2    -0.231622598644E+04   -0.10447E-01   -0.10890E-01  6082   0.154E-01    0.196E-01
RMM:   3    -0.231622683867E+04   -0.85223E-03   -0.11740E-02  5522   0.590E-02    0.148E-01
RMM:   4    -0.231622677386E+04    0.64805E-04   -0.11048E-03  3453   0.130E-02    0.836E-02
RMM:   5    -0.231622673303E+04    0.40829E-04   -0.17323E-04  3072   0.810E-03    0.670E-02
RMM:   6    -0.231622668519E+04    0.47842E-04   -0.15219E-04  3666   0.832E-03    0.280E-02
RMM:   7    -0.231622668241E+04    0.27846E-05   -0.32571E-05  2923   0.593E-03
  33 F= -.23370984E+04 E0= -.23370984E+04  d E =-.230927E-02  mag=     6.0000
       N       E                     dE             d eps       ncg     rms          rms(c)
DAV:   1    -0.231621777895E+04    0.89062E-02   -0.51231E-01  4456   0.636E-01    0.233E-01
RMM:   2    -0.231622658933E+04   -0.88104E-02   -0.91171E-02  6190   0.142E-01    0.206E-01
RMM:   3    -0.231622723010E+04   -0.64076E-03   -0.98677E-03  5472   0.554E-02    0.147E-01
RMM:   4    -0.231622714210E+04    0.87992E-04   -0.92482E-04  3316   0.123E-02    0.735E-02
RMM:   5    -0.231622711321E+04    0.28898E-04   -0.15770E-04  3024   0.783E-03    0.615E-02
RMM:   6    -0.231622707018E+04    0.43028E-04   -0.12560E-04  3426   0.783E-03    0.255E-02
RMM:   7    -0.231622706751E+04    0.26653E-05   -0.27660E-05  2909   0.577E-03
  34 F= -.23370990E+04 E0= -.23370990E+04  d E =-.294463E-02  mag=     6.0000
       N       E                     dE             d eps       ncg     rms          rms(c)
DAV:   1    -0.231622031758E+04    0.67526E-02   -0.57618E-01  4456   0.691E-01    0.245E-01
RMM:   2    -0.231622935273E+04   -0.90351E-02   -0.91969E-02  6149   0.149E-01    0.257E-01
RMM:   3    -0.231622973734E+04   -0.38461E-03   -0.10117E-02  5558   0.573E-02    0.148E-01
RMM:   4    -0.231622966777E+04    0.69561E-04   -0.10417E-03  3560   0.130E-02    0.776E-02
RMM:   5    -0.231622963054E+04    0.37231E-04   -0.16645E-04  2981   0.791E-03    0.633E-02
RMM:   6    -0.231622957922E+04    0.51322E-04   -0.13030E-04  3792   0.795E-03    0.287E-02
RMM:   7    -0.231622957555E+04    0.36713E-05   -0.34071E-05  2894   0.629E-03
  35 F= -.23371017E+04 E0= -.23371017E+04  d E =-.268849E-02  mag=     6.0000
       N       E                     dE             d eps       ncg     rms          rms(c)
DAV:   1    -0.231622118821E+04    0.83910E-02   -0.55488E-01  4456   0.678E-01    0.240E-01
RMM:   2    -0.231622986073E+04   -0.86725E-02   -0.88641E-02  6155   0.146E-01    0.240E-01
RMM:   3    -0.231623028649E+04   -0.42575E-03   -0.97298E-03  5552   0.562E-02    0.145E-01
RMM:   4    -0.231623022117E+04    0.65318E-04   -0.99463E-04  3462   0.128E-02    0.760E-02
RMM:   5    -0.231623018629E+04    0.34874E-04   -0.15749E-04  2978   0.772E-03    0.628E-02
RMM:   6    -0.231623013537E+04    0.50925E-04   -0.12668E-04  3683   0.780E-03    0.277E-02
RMM:   7    -0.231623013116E+04    0.42096E-05   -0.32789E-05  2903   0.616E-03
  36 F= -.23371024E+04 E0= -.23371024E+04  d E =-.341571E-02  mag=     6.0000
       N       E                     dE             d eps       ncg     rms          rms(c)
DAV:   1    -0.231622379955E+04    0.63358E-02   -0.51620E-01  4464   0.683E-01    0.235E-01
RMM:   2    -0.231623119359E+04   -0.73940E-02   -0.76027E-02  6089   0.144E-01    0.217E-01
RMM:   3    -0.231623162204E+04   -0.42845E-03   -0.82817E-03  5522   0.554E-02    0.149E-01
RMM:   4    -0.231623151825E+04    0.10379E-03   -0.85284E-04  3797   0.130E-02    0.709E-02
RMM:   5    -0.231623149026E+04    0.27988E-04   -0.15992E-04  3051   0.836E-03    0.589E-02
RMM:   6    -0.231623144888E+04    0.41376E-04   -0.11560E-04  3733   0.807E-03    0.238E-02
RMM:   7    -0.231623144722E+04    0.16580E-05   -0.24511E-05  2905   0.588E-03
  37 F= -.23371039E+04 E0= -.23371039E+04  d E =-.145512E-02  mag=     6.0000
       N       E                     dE             d eps       ncg     rms          rms(c)
DAV:   1    -0.231623022058E+04    0.12283E-02   -0.81189E-02  4672   0.271E-01    0.941E-02
RMM:   2    -0.231623139200E+04   -0.11714E-02   -0.12030E-02  6086   0.578E-02    0.879E-02
RMM:   3    -0.231623146097E+04   -0.68966E-04   -0.13197E-03  3633   0.228E-02    0.614E-02
RMM:   4    -0.231623144288E+04    0.18090E-04   -0.13760E-04  2928   0.616E-03    0.285E-02
RMM:   5    -0.231623143860E+04    0.42788E-05   -0.27475E-05  2889   0.374E-03
  38 F= -.23371039E+04 E0= -.23371039E+04  d E =-.150001E-02  mag=     6.0000
       N       E                     dE             d eps       ncg     rms          rms(c)
DAV:   1    -0.231622617890E+04    0.52640E-02   -0.44061E-01  4464   0.652E-01    0.204E-01
RMM:   2    -0.231623226155E+04   -0.60826E-02   -0.63729E-02  5998   0.132E-01    0.151E-01
RMM:   3    -0.231623276046E+04   -0.49891E-03   -0.65782E-03  5273   0.504E-02    0.131E-01
RMM:   4    -0.231623266953E+04    0.90933E-04   -0.64103E-04  3309   0.116E-02    0.621E-02
RMM:   5    -0.231623264148E+04    0.28045E-04   -0.13149E-04  3223   0.813E-03    0.468E-02
RMM:   6    -0.231623262320E+04    0.18286E-04   -0.85040E-05  3078   0.727E-03    0.283E-02
RMM:   7    -0.231623261763E+04    0.55716E-05   -0.21251E-05  2889   0.562E-03
  39 F= -.23371052E+04 E0= -.23371052E+04  d E =-.127642E-02  mag=     6.0000
       N       E                     dE             d eps       ncg     rms          rms(c)
DAV:   1    -0.231623082068E+04    0.18025E-02   -0.12744E-01  4560   0.350E-01    0.111E-01
RMM:   2    -0.231623260160E+04   -0.17809E-02   -0.18578E-02  6077   0.721E-02    0.887E-02
RMM:   3    -0.231623274076E+04   -0.13916E-03   -0.18877E-03  4053   0.278E-02    0.772E-02
RMM:   4    -0.231623270600E+04    0.34764E-04   -0.19025E-04  2938   0.715E-03    0.324E-02
RMM:   5    -0.231623269831E+04    0.76849E-05   -0.37510E-05  2898   0.460E-03
  40 F= -.23371053E+04 E0= -.23371053E+04  d E =-.140720E-02  mag=     6.0000
       N       E                     dE             d eps       ncg     rms          rms(c)
DAV:   1    -0.231622661629E+04    0.60897E-02   -0.52744E-01  4472   0.727E-01    0.219E-01
RMM:   2    -0.231623358007E+04   -0.69638E-02   -0.73284E-02  5954   0.144E-01    0.143E-01
RMM:   3    -0.231623417723E+04   -0.59715E-03   -0.76008E-03  5274   0.578E-02    0.127E-01
RMM:   4    -0.231623410106E+04    0.76167E-04   -0.73008E-04  3373   0.125E-02    0.664E-02
RMM:   5    -0.231623406249E+04    0.38571E-04   -0.13982E-04  3392   0.855E-03    0.451E-02
RMM:   6    -0.231623405104E+04    0.11445E-04   -0.85280E-05  3084   0.726E-03    0.353E-02
RMM:   7    -0.231623404145E+04    0.95969E-05   -0.27304E-05  2882   0.587E-03
  41 F= -.23371067E+04 E0= -.23371067E+04  d E =-.138332E-02  mag=     6.0000
       N       E                     dE             d eps       ncg     rms          rms(c)
DAV:   1    -0.231623113733E+04    0.29137E-02   -0.21532E-01  4480   0.464E-01    0.141E-01
RMM:   2    -0.231623399862E+04   -0.28613E-02   -0.30037E-02  6011   0.927E-02    0.958E-02
RMM:   3    -0.231623424401E+04   -0.24539E-03   -0.30227E-03  4580   0.372E-02    0.915E-02
RMM:   4    -0.231623419818E+04    0.45836E-04   -0.29693E-04  2971   0.860E-03    0.406E-02
RMM:   5    -0.231623418084E+04    0.17333E-04   -0.54957E-05  2926   0.567E-03    0.241E-02
RMM:   6    -0.231623417904E+04    0.18033E-05   -0.34483E-05  2915   0.532E-03
  42 F= -.23371069E+04 E0= -.23371069E+04  d E =-.154404E-02  mag=     6.0000
       N       E                     dE             d eps       ncg     rms          rms(c)
DAV:   1    -0.231622842194E+04    0.57589E-02   -0.51467E-01  4464   0.733E-01    0.220E-01
RMM:   2    -0.231623457215E+04   -0.61502E-02   -0.65186E-02  5866   0.142E-01    0.128E-01
RMM:   3    -0.231623509650E+04   -0.52435E-03   -0.66082E-03  5222   0.556E-02    0.117E-01
RMM:   4    -0.231623504404E+04    0.52453E-04   -0.67606E-04  3494   0.123E-02    0.675E-02
RMM:   5    -0.231623500466E+04    0.39378E-04   -0.12877E-04  3378   0.859E-03    0.431E-02
RMM:   6    -0.231623499118E+04    0.13487E-04   -0.87860E-05  3457   0.767E-03    0.278E-02
RMM:   7    -0.231623498510E+04    0.60764E-05   -0.21784E-05  2878   0.565E-03
  43 F= -.23371077E+04 E0= -.23371077E+04  d E =-.883916E-03  mag=     6.0000
       N       E                     dE             d eps       ncg     rms          rms(c)
DAV:   1    -0.231623485667E+04    0.13451E-03   -0.81106E-03  5320   0.924E-02    0.287E-02
RMM:   2    -0.231623495772E+04   -0.10105E-03   -0.10671E-03  5566   0.194E-02    0.206E-02
RMM:   3    -0.231623496710E+04   -0.93865E-05   -0.11227E-04  2878   0.806E-03    0.209E-02
RMM:   4    -0.231623496438E+04    0.27243E-05   -0.11919E-05  2865   0.243E-03
  44 F= -.23371077E+04 E0= -.23371077E+04  d E =-.872781E-03  mag=     6.0000
       N       E                     dE             d eps       ncg     rms          rms(c)
DAV:   1    -0.231623311852E+04    0.18486E-02   -0.21056E-01  4480   0.471E-01    0.145E-01
RMM:   2    -0.231623543098E+04   -0.23125E-02   -0.24332E-02  5897   0.904E-02    0.101E-01
RMM:   3    -0.231623560407E+04   -0.17308E-03   -0.23741E-03  4617   0.351E-02    0.970E-02
RMM:   4    -0.231623554773E+04    0.56341E-04   -0.28404E-04  3043   0.897E-03    0.423E-02
RMM:   5    -0.231623553676E+04    0.10967E-04   -0.64531E-05  2930   0.633E-03    0.336E-02
RMM:   6    -0.231623552461E+04    0.12147E-04   -0.44273E-05  2951   0.620E-03    0.154E-02
RMM:   7    -0.231623552337E+04    0.12444E-05   -0.11419E-05  2870   0.480E-03
  45 F= -.23371084E+04 E0= -.23371084E+04  d E =-.677903E-03  mag=     6.0000
       N       E                     dE             d eps       ncg     rms          rms(c)
DAV:   1    -0.231623536908E+04    0.15553E-03   -0.11782E-02  4984   0.112E-01    0.352E-02
RMM:   2    -0.231623550230E+04   -0.13322E-03   -0.13979E-03  5749   0.229E-02    0.256E-02
RMM:   3    -0.231623551238E+04   -0.10082E-04   -0.13690E-04  2898   0.915E-03    0.246E-02
RMM:   4    -0.231623550880E+04    0.35837E-05   -0.17275E-05  2881   0.296E-03
  46 F= -.23371084E+04 E0= -.23371084E+04  d E =-.691414E-03  mag=     6.0000
       N       E                     dE             d eps       ncg     rms          rms(c)
DAV:   1    -0.231623396054E+04    0.15518E-02   -0.14618E-01  4480   0.387E-01    0.133E-01
RMM:   2    -0.231623582347E+04   -0.18629E-02   -0.19312E-02  5924   0.772E-02    0.105E-01
RMM:   3    -0.231623594765E+04   -0.12419E-03   -0.20205E-03  4228   0.310E-02    0.907E-02
RMM:   4    -0.231623589918E+04    0.48470E-04   -0.23499E-04  2989   0.819E-03    0.387E-02
RMM:   5    -0.231623589075E+04    0.84311E-05   -0.55230E-05  2898   0.562E-03
  47 F= -.23371090E+04 E0= -.23371090E+04  d E =-.577379E-03  mag=     6.0000
       N       E                     dE             d eps       ncg     rms          rms(c)
DAV:   1    -0.231623569648E+04    0.20271E-03   -0.10261E-02  5248   0.103E-01    0.366E-02
RMM:   2    -0.231623582966E+04   -0.13318E-03   -0.14231E-03  5735   0.223E-02    0.266E-02
RMM:   3    -0.231623583742E+04   -0.77628E-05   -0.14989E-04  2892   0.889E-03    0.194E-02
RMM:   4    -0.231623583445E+04    0.29732E-05   -0.17497E-05  2894   0.311E-03
  48 F= -.23371090E+04 E0= -.23371090E+04  d E =-.573872E-03  mag=     6.0000
       N       E                     dE             d eps       ncg     rms          rms(c)
DAV:   1    -0.231623411529E+04    0.17221E-02   -0.12504E-01  4480   0.345E-01    0.120E-01
RMM:   2    -0.231623607087E+04   -0.19556E-02   -0.19990E-02  6057   0.714E-02    0.114E-01
RMM:   3    -0.231623617856E+04   -0.10769E-03   -0.21086E-03  3879   0.284E-02    0.799E-02
RMM:   4    -0.231623614943E+04    0.29133E-04   -0.23348E-04  2954   0.744E-03    0.358E-02
RMM:   5    -0.231623614183E+04    0.75921E-05   -0.37884E-05  2890   0.443E-03
  49 F= -.23371096E+04 E0= -.23371096E+04  d E =-.566724E-03  mag=     6.0000
       N       E                     dE             d eps       ncg     rms          rms(c)
DAV:   1    -0.231623448079E+04    0.16686E-02   -0.94304E-02  4480   0.300E-01    0.102E-01
RMM:   2    -0.231623593001E+04   -0.14492E-02   -0.15104E-02  6156   0.629E-02    0.790E-02
RMM:   3    -0.231623603665E+04   -0.10664E-03   -0.16039E-03  3532   0.243E-02    0.619E-02
RMM:   4    -0.231623601890E+04    0.17752E-04   -0.16855E-04  2929   0.670E-03    0.317E-02
RMM:   5    -0.231623601580E+04    0.30990E-05   -0.34924E-05  2870   0.423E-03
  50 F= -.23371097E+04 E0= -.23371097E+04  d E =-.666267E-03  mag=     6.0000
       N       E                     dE             d eps       ncg     rms          rms(c)
DAV:   1    -0.231623447313E+04    0.15458E-02   -0.11626E-01  4480   0.335E-01    0.112E-01
RMM:   2    -0.231623623787E+04   -0.17647E-02   -0.18370E-02  6103   0.699E-02    0.844E-02
RMM:   3    -0.231623637402E+04   -0.13615E-03   -0.18961E-03  3864   0.279E-02    0.697E-02
RMM:   4    -0.231623635160E+04    0.22422E-04   -0.20117E-04  2943   0.712E-03    0.329E-02
RMM:   5    -0.231623634631E+04    0.52904E-05   -0.35565E-05  2873   0.440E-03
  51 F= -.23371102E+04 E0= -.23371102E+04  d E =-.488407E-03  mag=     6.0000
       N       E                     dE             d eps       ncg     rms          rms(c)
DAV:   1    -0.231623414271E+04    0.22089E-02   -0.13517E-01  4480   0.361E-01    0.122E-01
RMM:   2    -0.231623619713E+04   -0.20544E-02   -0.21366E-02  6111   0.750E-02    0.936E-02
RMM:   3    -0.231623634886E+04   -0.15173E-03   -0.22072E-03  3976   0.304E-02    0.751E-02
RMM:   4    -0.231623632228E+04    0.26577E-04   -0.23479E-04  2950   0.764E-03    0.365E-02
RMM:   5    -0.231623631617E+04    0.61156E-05   -0.43531E-05  2876   0.485E-03
  52 F= -.23371103E+04 E0= -.23371103E+04  d E =-.627299E-03  mag=     6.0000
       N       E                     dE             d eps       ncg     rms          rms(c)
DAV:   1    -0.231623490459E+04    0.14177E-02   -0.13293E-01  4480   0.360E-01    0.122E-01
RMM:   2    -0.231623670676E+04   -0.18022E-02   -0.18888E-02  6080   0.737E-02    0.857E-02
RMM:   3    -0.231623686118E+04   -0.15442E-03   -0.19814E-03  4062   0.302E-02    0.800E-02
RMM:   4    -0.231623682513E+04    0.36045E-04   -0.21884E-04  2964   0.769E-03    0.360E-02
RMM:   5    -0.231623681586E+04    0.92691E-05   -0.46403E-05  2885   0.540E-03
  53 F= -.23371108E+04 E0= -.23371108E+04  d E =-.548180E-03  mag=     6.0000
       N       E                     dE             d eps       ncg     rms          rms(c)
DAV:   1    -0.231623612401E+04    0.70113E-03   -0.48082E-02  4632   0.216E-01    0.750E-02
RMM:   2    -0.231623678654E+04   -0.66254E-03   -0.69710E-03  6225   0.458E-02    0.537E-02
RMM:   3    -0.231623683341E+04   -0.46866E-04   -0.70710E-04  3172   0.171E-02    0.442E-02
RMM:   4    -0.231623682180E+04    0.11609E-04   -0.79232E-05  2919   0.528E-03    0.228E-02
RMM:   5    -0.231623681989E+04    0.19150E-05   -0.21162E-05  2866   0.360E-03
  54 F= -.23371109E+04 E0= -.23371109E+04  d E =-.581033E-03  mag=     6.0000
       N       E                     dE             d eps       ncg     rms          rms(c)
DAV:   1    -0.231623489795E+04    0.19238E-02   -0.14610E-01  4472   0.363E-01    0.127E-01
RMM:   2    -0.231623708127E+04   -0.21833E-02   -0.22567E-02  6059   0.748E-02    0.995E-02
RMM:   3    -0.231623727293E+04   -0.19166E-03   -0.23920E-03  4014   0.302E-02    0.892E-02
RMM:   4    -0.231623722870E+04    0.44227E-04   -0.26079E-04  2958   0.788E-03    0.337E-02
RMM:   5    -0.231623721707E+04    0.11635E-04   -0.32978E-05  2886   0.487E-03    0.192E-02
RMM:   6    -0.231623721766E+04   -0.59186E-06   -0.25523E-05  2923   0.471E-03
  55 F= -.23371114E+04 E0= -.23371114E+04  d E =-.503005E-03  mag=     6.0000
       N       E                     dE             d eps       ncg     rms          rms(c)
DAV:   1    -0.231623591197E+04    0.13051E-02   -0.82559E-02  4512   0.273E-01    0.966E-02
RMM:   2    -0.231623714421E+04   -0.12322E-02   -0.12794E-02  6237   0.569E-02    0.695E-02
RMM:   3    -0.231623726108E+04   -0.11688E-03   -0.13569E-03  3311   0.204E-02    0.673E-02
RMM:   4    -0.231623723557E+04    0.25511E-04   -0.15124E-04  2919   0.612E-03    0.256E-02
RMM:   5    -0.231623722936E+04    0.62153E-05   -0.17247E-05  2874   0.353E-03
  56 F= -.23371115E+04 E0= -.23371115E+04  d E =-.593095E-03  mag=     6.0000
       N       E                     dE             d eps       ncg     rms          rms(c)
DAV:   1    -0.231623555143E+04    0.16841E-02   -0.13240E-01  4472   0.345E-01    0.126E-01
RMM:   2    -0.231623759394E+04   -0.20425E-02   -0.21149E-02  6064   0.724E-02    0.967E-02
RMM:   3    -0.231623777565E+04   -0.18171E-03   -0.22397E-03  3930   0.289E-02    0.909E-02
RMM:   4    -0.231623772687E+04    0.48783E-04   -0.24922E-04  2946   0.769E-03    0.323E-02
RMM:   5    -0.231623771669E+04    0.10177E-04   -0.30881E-05  2879   0.474E-03    0.190E-02
RMM:   6    -0.231623771694E+04   -0.24878E-06   -0.24296E-05  2909   0.463E-03
  57 F= -.23371121E+04 E0= -.23371121E+04  d E =-.636507E-03  mag=     6.0000
       N       E                     dE             d eps       ncg     rms          rms(c)
DAV:   1    -0.231623609743E+04    0.16193E-02   -0.99248E-02  4512   0.299E-01    0.110E-01
RMM:   2    -0.231623763480E+04   -0.15374E-02   -0.15928E-02  6148   0.630E-02    0.829E-02
RMM:   3    -0.231623777323E+04   -0.13842E-03   -0.16717E-03  3683   0.246E-02    0.804E-02
RMM:   4    -0.231623773410E+04    0.39128E-04   -0.18926E-04  2927   0.682E-03    0.277E-02
RMM:   5    -0.231623772596E+04    0.81403E-05   -0.21584E-05  2882   0.410E-03
  58 F= -.23371122E+04 E0= -.23371122E+04  d E =-.773190E-03  mag=     6.0000
       N       E                     dE             d eps       ncg     rms          rms(c)
DAV:   1    -0.231623615326E+04    0.15808E-02   -0.11896E-01  4472   0.332E-01    0.122E-01
RMM:   2    -0.231623795409E+04   -0.18008E-02   -0.18651E-02  6117   0.696E-02    0.911E-02
RMM:   3    -0.231623811198E+04   -0.15790E-03   -0.19432E-03  3927   0.281E-02    0.894E-02
RMM:   4    -0.231623806271E+04    0.49272E-04   -0.22347E-04  2929   0.757E-03    0.300E-02
RMM:   5    -0.231623805298E+04    0.97294E-05   -0.28843E-05  2887   0.465E-03
  59 F= -.23371127E+04 E0= -.23371127E+04  d E =-.463333E-03  mag=     6.0000
       N       E                     dE             d eps       ncg     rms          rms(c)
DAV:   1    -0.231623675481E+04    0.13079E-02   -0.78008E-02  4552   0.268E-01    0.985E-02
RMM:   2    -0.231623794157E+04   -0.11868E-02   -0.12322E-02  6230   0.571E-02    0.735E-02
RMM:   3    -0.231623804071E+04   -0.99133E-04   -0.13001E-03  3445   0.228E-02    0.678E-02
RMM:   4    -0.231623801410E+04    0.26605E-04   -0.14737E-04  2926   0.656E-03    0.269E-02
RMM:   5    -0.231623800928E+04    0.48202E-05   -0.25355E-05  2874   0.400E-03
  60 F= -.23371128E+04 E0= -.23371128E+04  d E =-.529195E-03  mag=     6.0000
       N       E                     dE             d eps       ncg     rms          rms(c)
DAV:   1    -0.231623628555E+04    0.17286E-02   -0.12034E-01  4488   0.327E-01    0.116E-01
RMM:   2    -0.231623818171E+04   -0.18962E-02   -0.19391E-02  6158   0.677E-02    0.102E-01
RMM:   3    -0.231623832262E+04   -0.14091E-03   -0.20476E-03  3767   0.279E-02    0.843E-02
RMM:   4    -0.231623828351E+04    0.39109E-04   -0.22665E-04  2953   0.749E-03    0.300E-02
RMM:   5    -0.231623827360E+04    0.99140E-05   -0.27859E-05  2885   0.441E-03
  61 F= -.23371132E+04 E0= -.23371132E+04  d E =-.421336E-03  mag=     6.0000
       N       E                     dE             d eps       ncg     rms          rms(c)
DAV:   1    -0.231623540459E+04    0.28789E-02   -0.16917E-01  4480   0.388E-01    0.139E-01
RMM:   2    -0.231623806531E+04   -0.26607E-02   -0.27299E-02  6151   0.802E-02    0.117E-01
RMM:   3    -0.231623827384E+04   -0.20854E-03   -0.28696E-03  4196   0.332E-02    0.995E-02
RMM:   4    -0.231623821887E+04    0.54977E-04   -0.31834E-04  2971   0.842E-03    0.365E-02
RMM:   5    -0.231623820745E+04    0.11421E-04   -0.42362E-05  2891   0.511E-03    0.261E-02
RMM:   6    -0.231623820261E+04    0.48339E-05   -0.30974E-05  2915   0.480E-03
  62 F= -.23371133E+04 E0= -.23371133E+04  d E =-.534887E-03  mag=     6.0000
       N       E                     dE             d eps       ncg     rms          rms(c)
DAV:   1    -0.231623628589E+04    0.19216E-02   -0.13396E-01  4512   0.349E-01    0.128E-01
RMM:   2    -0.231623839991E+04   -0.21140E-02   -0.21771E-02  6095   0.719E-02    0.102E-01
RMM:   3    -0.231623858370E+04   -0.18379E-03   -0.23328E-03  4036   0.288E-02    0.941E-02
RMM:   4    -0.231623853113E+04    0.52573E-04   -0.25959E-04  2936   0.750E-03    0.312E-02
RMM:   5    -0.231623852037E+04    0.10763E-04   -0.31938E-05  2896   0.443E-03    0.194E-02
RMM:   6    -0.231623851821E+04    0.21544E-05   -0.24631E-05  2895   0.456E-03
  63 F= -.23371138E+04 E0= -.23371138E+04  d E =-.482608E-03  mag=     6.0000
       N       E                     dE             d eps       ncg     rms          rms(c)
DAV:   1    -0.231623683821E+04    0.16822E-02   -0.97157E-02  4504   0.297E-01    0.109E-01
RMM:   2    -0.231623837539E+04   -0.15372E-02   -0.15833E-02  6104   0.614E-02    0.867E-02
RMM:   3    -0.231623851070E+04   -0.13531E-03   -0.17127E-03  3745   0.264E-02    0.801E-02
RMM:   4    -0.231623847259E+04    0.38120E-04   -0.18935E-04  2927   0.677E-03    0.266E-02
RMM:   5    -0.231623846371E+04    0.88737E-05   -0.23034E-05  2889   0.396E-03
  64 F= -.23371139E+04 E0= -.23371139E+04  d E =-.569316E-03  mag=     6.0000
       N       E                     dE             d eps       ncg     rms          rms(c)
DAV:   1    -0.231623686050E+04    0.16121E-02   -0.11544E-01  4472   0.322E-01    0.121E-01
RMM:   2    -0.231623871957E+04   -0.18591E-02   -0.19319E-02  6169   0.671E-02    0.886E-02
RMM:   3    -0.231623889313E+04   -0.17356E-03   -0.20677E-03  3803   0.279E-02    0.852E-02
RMM:   4    -0.231623885257E+04    0.40557E-04   -0.23320E-04  2934   0.746E-03    0.320E-02
RMM:   5    -0.231623884238E+04    0.10192E-04   -0.33428E-05  2877   0.468E-03    0.205E-02
RMM:   6    -0.231623884023E+04    0.21428E-05   -0.24160E-05  2897   0.448E-03
  65 F= -.23371144E+04 E0= -.23371144E+04  d E =-.489241E-03  mag=     6.0000
       N       E                     dE             d eps       ncg     rms          rms(c)
DAV:   1    -0.231623743292E+04    0.14095E-02   -0.80908E-02  4600   0.269E-01    0.102E-01
RMM:   2    -0.231623874032E+04   -0.13074E-02   -0.13617E-02  6188   0.559E-02    0.724E-02
RMM:   3    -0.231623886578E+04   -0.12546E-03   -0.14580E-03  3443   0.222E-02    0.714E-02
RMM:   4    -0.231623883667E+04    0.29111E-04   -0.16600E-04  2917   0.620E-03    0.265E-02
RMM:   5    -0.231623882832E+04    0.83473E-05   -0.20701E-05  2878   0.379E-03
  66 F= -.23371144E+04 E0= -.23371144E+04  d E =-.570715E-03  mag=     6.0000
       N       E                     dE             d eps       ncg     rms          rms(c)
DAV:   1    -0.231623640398E+04    0.24327E-02   -0.15763E-01  4464   0.366E-01    0.138E-01
RMM:   2    -0.231623898035E+04   -0.25764E-02   -0.26892E-02  6130   0.764E-02    0.937E-02
RMM:   3    -0.231623923564E+04   -0.25529E-03   -0.28947E-03  4093   0.311E-02    0.885E-02
RMM:   4    -0.231623919611E+04    0.39536E-04   -0.32157E-04  2939   0.781E-03    0.384E-02
RMM:   5    -0.231623917970E+04    0.16406E-04   -0.40920E-05  2887   0.498E-03    0.218E-02
RMM:   6    -0.231623917794E+04    0.17643E-05   -0.34031E-05  2930   0.504E-03
  67 F= -.23371149E+04 E0= -.23371149E+04  d E =-.471178E-03  mag=     6.0000
       N       E                     dE             d eps       ncg     rms          rms(c)
DAV:   1    -0.231623853224E+04    0.64746E-03   -0.34350E-02  4736   0.171E-01    0.650E-02
RMM:   2    -0.231623909239E+04   -0.56015E-03   -0.59155E-03  6197   0.372E-02    0.370E-02
RMM:   3    -0.231623914912E+04   -0.56727E-04   -0.63235E-04  2957   0.144E-02    0.332E-02
RMM:   4    -0.231623914635E+04    0.27671E-05   -0.70445E-05  2915   0.401E-03
  68 F= -.23371149E+04 E0= -.23371149E+04  d E =-.495797E-03  mag=     6.0000
       N       E                     dE             d eps       ncg     rms          rms(c)
DAV:   1    -0.231623649595E+04    0.26532E-02   -0.17838E-01  4464   0.388E-01    0.144E-01
RMM:   2    -0.231623936744E+04   -0.28715E-02   -0.29520E-02  5965   0.792E-02    0.123E-01
RMM:   3    -0.231623961304E+04   -0.24560E-03   -0.32415E-03  4249   0.342E-02    0.102E-01
RMM:   4    -0.231623955155E+04    0.61492E-04   -0.35561E-04  2968   0.832E-03    0.403E-02
RMM:   5    -0.231623953427E+04    0.17278E-04   -0.51434E-05  2929   0.544E-03    0.254E-02
RMM:   6    -0.231623953179E+04    0.24847E-05   -0.42962E-05  2922   0.553E-03
  69 F= -.23371155E+04 E0= -.23371155E+04  d E =-.515855E-03  mag=     6.0000
       N       E                     dE             d eps       ncg     rms          rms(c)
DAV:   1    -0.231623873811E+04    0.79616E-03   -0.43147E-02  4560   0.191E-01    0.723E-02
RMM:   2    -0.231623942887E+04   -0.69075E-03   -0.72809E-03  6214   0.407E-02    0.445E-02
RMM:   3    -0.231623949832E+04   -0.69454E-04   -0.78668E-04  3001   0.162E-02    0.400E-02
RMM:   4    -0.231623949266E+04    0.56582E-05   -0.87649E-05  2918   0.456E-03
  70 F= -.23371155E+04 E0= -.23371155E+04  d E =-.540509E-03  mag=     6.0000
       N       E                     dE             d eps       ncg     rms          rms(c)
DAV:   1    -0.231623673437E+04    0.27640E-02   -0.18512E-01  4464   0.404E-01    0.151E-01
RMM:   2    -0.231623968664E+04   -0.29523E-02   -0.30536E-02  5958   0.828E-02    0.122E-01
RMM:   3    -0.231623995116E+04   -0.26452E-03   -0.33592E-03  4443   0.356E-02    0.109E-01
RMM:   4    -0.231623987781E+04    0.73354E-04   -0.37263E-04  2983   0.876E-03    0.420E-02
RMM:   5    -0.231623985783E+04    0.19976E-04   -0.56293E-05  2950   0.592E-03    0.260E-02
RMM:   6    -0.231623985441E+04    0.34235E-05   -0.46234E-05  2931   0.604E-03
  71 F= -.23371159E+04 E0= -.23371159E+04  d E =-.446262E-03  mag=     6.0000
       N       E                     dE             d eps       ncg     rms          rms(c)
DAV:   1    -0.231623951769E+04    0.34014E-03   -0.17370E-02  4960   0.124E-01    0.476E-02
RMM:   2    -0.231623979481E+04   -0.27712E-03   -0.29652E-03  5982   0.280E-02    0.249E-02
RMM:   3    -0.231623982140E+04   -0.26593E-04   -0.31733E-04  2904   0.113E-02    0.173E-02
RMM:   4    -0.231623982213E+04   -0.72581E-06   -0.34859E-05  2924   0.307E-03
  72 F= -.23371159E+04 E0= -.23371159E+04  d E =-.439688E-03  mag=     6.0000
       N       E                     dE             d eps       ncg     rms          rms(c)
DAV:   1    -0.231623674498E+04    0.30764E-02   -0.19408E-01  4464   0.407E-01    0.154E-01
RMM:   2    -0.231623998157E+04   -0.32366E-02   -0.33298E-02  5924   0.854E-02    0.131E-01
RMM:   3    -0.231624025724E+04   -0.27567E-03   -0.36240E-03  4523   0.365E-02    0.113E-01
RMM:   4    -0.231624018035E+04    0.76888E-04   -0.39825E-04  2975   0.892E-03    0.415E-02
RMM:   5    -0.231624016375E+04    0.16597E-04   -0.52400E-05  2928   0.567E-03    0.283E-02
RMM:   6    -0.231624015873E+04    0.50190E-05   -0.45767E-05  2929   0.576E-03
  73 F= -.23371164E+04 E0= -.23371164E+04  d E =-.428587E-03  mag=     6.0000
       N       E                     dE             d eps       ncg     rms          rms(c)
DAV:   1    -0.231623992306E+04    0.24069E-03   -0.11101E-02  5128   0.976E-02    0.382E-02
RMM:   2    -0.231624010819E+04   -0.18513E-03   -0.19777E-03  5760   0.227E-02    0.198E-02
RMM:   3    -0.231624012633E+04   -0.18145E-04   -0.21282E-04  2881   0.944E-03    0.126E-02
RMM:   4    -0.231624012697E+04   -0.63684E-06   -0.22628E-05  2918   0.258E-03
  74 F= -.23371163E+04 E0= -.23371163E+04  d E =-.418790E-03  mag=     6.0000
       N       E                     dE             d eps       ncg     rms          rms(c)
DAV:   1    -0.231623724855E+04    0.28778E-02   -0.18575E-01  4464   0.402E-01    0.153E-01
RMM:   2    -0.231624024260E+04   -0.29941E-02   -0.30731E-02  5906   0.844E-02    0.129E-01
RMM:   3    -0.231624048727E+04   -0.24468E-03   -0.32841E-03  4547   0.353E-02    0.115E-01
RMM:   4    -0.231624040373E+04    0.83546E-04   -0.36326E-04  2994   0.890E-03    0.390E-02
RMM:   5    -0.231624038830E+04    0.15432E-04   -0.50717E-05  2940   0.572E-03    0.256E-02
RMM:   6    -0.231624038555E+04    0.27508E-05   -0.40107E-05  2919   0.568E-03
  75 F= -.23371168E+04 E0= -.23371168E+04  d E =-.473324E-03  mag=     6.0000
       N       E                     dE             d eps       ncg     rms          rms(c)
DAV:   1    -0.231624007515E+04    0.31315E-03   -0.14271E-02  4928   0.112E-01    0.434E-02
RMM:   2    -0.231624030403E+04   -0.22888E-03   -0.24235E-03  5912   0.256E-02    0.228E-02
RMM:   3    -0.231624032712E+04   -0.23089E-04   -0.26131E-04  2897   0.106E-02    0.193E-02
RMM:   4    -0.231624032693E+04    0.18798E-06   -0.28801E-05  2913   0.286E-03
  76 F= -.23371168E+04 E0= -.23371168E+04  d E =-.474565E-03  mag=     6.0000
       N       E                     dE             d eps       ncg     rms          rms(c)
DAV:   1    -0.231623793307E+04    0.23941E-02   -0.16008E-01  4464   0.377E-01    0.143E-01
RMM:   2    -0.231624034686E+04   -0.24138E-02   -0.24995E-02  5901   0.786E-02    0.112E-01
RMM:   3    -0.231624055218E+04   -0.20532E-03   -0.26284E-03  4396   0.333E-02    0.109E-01
RMM:   4    -0.231624047196E+04    0.80220E-04   -0.29504E-04  2993   0.844E-03    0.361E-02
RMM:   5    -0.231624045505E+04    0.16909E-04   -0.50897E-05  2966   0.566E-03    0.185E-02
RMM:   6    -0.231624045346E+04    0.15918E-05   -0.26313E-05  2912   0.546E-03
  77 F= -.23371172E+04 E0= -.23371172E+04  d E =-.429551E-03  mag=     6.0000
       N       E                     dE             d eps       ncg     rms          rms(c)
DAV:   1    -0.231624030418E+04    0.15087E-03   -0.52596E-03  5320   0.686E-02    0.269E-02
RMM:   2    -0.231624038379E+04   -0.79612E-04   -0.85305E-04  5124   0.162E-02    0.130E-02
RMM:   3    -0.231624039171E+04   -0.79157E-05   -0.92826E-05  2866   0.745E-03
  78 F= -.23371172E+04 E0= -.23371172E+04  d E =-.423314E-03  mag=     6.0000
       N       E                     dE             d eps       ncg     rms          rms(c)
DAV:   1    -0.231623844677E+04    0.19370E-02   -0.13157E-01  4464   0.343E-01    0.129E-01
RMM:   2    -0.231624042559E+04   -0.19788E-02   -0.20633E-02  5943   0.722E-02    0.916E-02
RMM:   3    -0.231624059881E+04   -0.17323E-03   -0.20777E-03  4026   0.288E-02    0.951E-02
RMM:   4    -0.231624054144E+04    0.57371E-04   -0.24506E-04  2937   0.780E-03    0.343E-02
RMM:   5    -0.231624052750E+04    0.13946E-04   -0.42858E-05  2927   0.526E-03    0.188E-02
RMM:   6    -0.231624052717E+04    0.32576E-06   -0.26540E-05  2921   0.504E-03
  79 F= -.23371176E+04 E0= -.23371176E+04  d E =-.362319E-03  mag=     6.0000
       N       E                     dE             d eps       ncg     rms          rms(c)
DAV:   1    -0.231624033381E+04    0.19368E-03   -0.82249E-03  5008   0.858E-02    0.331E-02
RMM:   2    -0.231624045601E+04   -0.12220E-03   -0.13080E-03  5640   0.199E-02    0.157E-02
RMM:   3    -0.231624046765E+04   -0.11633E-04   -0.14061E-04  2881   0.860E-03    0.103E-02
RMM:   4    -0.231624046833E+04   -0.68334E-06   -0.15574E-05  2897   0.226E-03
  80 F= -.23371176E+04 E0= -.23371176E+04  d E =-.360555E-03  mag=     6.0000
       N       E                     dE             d eps       ncg     rms          rms(c)
DAV:   1    -0.231623882761E+04    0.16400E-02   -0.13135E-01  4464   0.349E-01    0.130E-01
RMM:   2    -0.231624066077E+04   -0.18332E-02   -0.18856E-02  5912   0.717E-02    0.111E-01
RMM:   3    -0.231624079302E+04   -0.13225E-03   -0.19877E-03  4081   0.293E-02    0.997E-02
RMM:   4    -0.231624072298E+04    0.70041E-04   -0.22083E-04  2960   0.792E-03    0.319E-02
RMM:   5    -0.231624070959E+04    0.13390E-04   -0.44067E-05  2956   0.541E-03    0.157E-02
RMM:   6    -0.231624070861E+04    0.98468E-06   -0.19805E-05  2902   0.511E-03
  81 F= -.23371180E+04 E0= -.23371180E+04  d E =-.382963E-03  mag=     6.0000
       N       E                     dE             d eps       ncg     rms          rms(c)
DAV:   1    -0.231624057053E+04    0.13906E-03   -0.68069E-03  5112   0.797E-02    0.303E-02
RMM:   2    -0.231624066534E+04   -0.94811E-04   -0.10043E-03  5455   0.182E-02    0.177E-02
RMM:   3    -0.231624067545E+04   -0.10111E-04   -0.11035E-04  2883   0.802E-03    0.195E-02
RMM:   4    -0.231624067331E+04    0.21412E-05   -0.12554E-05  2878   0.234E-03
  82 F= -.23371180E+04 E0= -.23371180E+04  d E =-.380319E-03  mag=     6.0000
       N       E                     dE             d eps       ncg     rms          rms(c)
DAV:   1    -0.231623921411E+04    0.14613E-02   -0.12518E-01  4464   0.336E-01    0.121E-01
RMM:   2    -0.231624082992E+04   -0.16158E-02   -0.16736E-02  5894   0.681E-02    0.988E-02
RMM:   3    -0.231624095844E+04   -0.12852E-03   -0.17581E-03  3979   0.275E-02    0.932E-02
RMM:   4    -0.231624089791E+04    0.60535E-04   -0.19936E-04  2936   0.756E-03    0.322E-02
RMM:   5    -0.231624088648E+04    0.11429E-04   -0.44677E-05  2944   0.540E-03    0.181E-02
RMM:   6    -0.231624088602E+04    0.45547E-06   -0.24405E-05  2903   0.511E-03
  83 F= -.23371183E+04 E0= -.23371183E+04  d E =-.351437E-03  mag=     6.0000
       N       E                     dE             d eps       ncg     rms          rms(c)
DAV:   1    -0.231624072516E+04    0.16132E-03   -0.88208E-03  4936   0.895E-02    0.329E-02
RMM:   2    -0.231624083908E+04   -0.11392E-03   -0.12099E-03  5646   0.197E-02    0.187E-02
RMM:   3    -0.231624085087E+04   -0.11794E-04   -0.13228E-04  2881   0.856E-03    0.194E-02
RMM:   4    -0.231624084911E+04    0.17638E-05   -0.14989E-05  2896   0.240E-03
  84 F= -.23371183E+04 E0= -.23371183E+04  d E =-.351620E-03  mag=     6.0000
       N       E                     dE             d eps       ncg     rms          rms(c)
DAV:   1    -0.231623953022E+04    0.13207E-02   -0.13311E-01  4464   0.351E-01    0.128E-01
RMM:   2    -0.231624094583E+04   -0.14156E-02   -0.15010E-02  5839   0.684E-02    0.860E-02
RMM:   3    -0.231624107647E+04   -0.13064E-03   -0.15616E-03  4063   0.275E-02    0.967E-02
RMM:   4    -0.231624100776E+04    0.68709E-04   -0.19108E-04  2963   0.780E-03    0.345E-02
RMM:   5    -0.231624099395E+04    0.13816E-04   -0.57781E-05  3102   0.601E-03    0.178E-02
RMM:   6    -0.231624099291E+04    0.10351E-05   -0.24234E-05  2902   0.541E-03
  85 F= -.23371186E+04 E0= -.23371186E+04  d E =-.309763E-03  mag=     6.0000
       N       E                     dE             d eps       ncg     rms          rms(c)
DAV:   1    -0.231624099091E+04    0.30361E-05   -0.18023E-05  3632   0.582E-03    0.533E-03
RMM:   2    -0.231624099179E+04   -0.88244E-06   -0.53872E-06  2638   0.284E-03
  86 F= -.23371186E+04 E0= -.23371186E+04  d E =-.308123E-03  mag=     6.0000
       N       E                     dE             d eps       ncg     rms          rms(c)
DAV:   1    -0.231624031463E+04    0.67628E-03   -0.84736E-02  4464   0.286E-01    0.105E-01
RMM:   2    -0.231624113668E+04   -0.82205E-03   -0.88299E-03  5774   0.547E-02    0.584E-02
RMM:   3    -0.231624120845E+04   -0.71774E-04   -0.87527E-04  3687   0.222E-02    0.662E-02
RMM:   4    -0.231624117998E+04    0.28472E-04   -0.11413E-04  2914   0.645E-03    0.299E-02
RMM:   5    -0.231624117191E+04    0.80708E-05   -0.34577E-05  2907   0.488E-03
  87 F= -.23371189E+04 E0= -.23371189E+04  d E =-.271466E-03  mag=     6.0000
       N       E                     dE             d eps       ncg     rms          rms(c)
DAV:   1    -0.231624114799E+04    0.31994E-04   -0.84929E-04  5248   0.295E-02    0.168E-02
RMM:   2    -0.231624116048E+04   -0.12494E-04   -0.11635E-04  3053   0.723E-03    0.219E-02
RMM:   3    -0.231624115612E+04    0.43651E-05   -0.16709E-05  2642   0.446E-03
  88 F= -.23371189E+04 E0= -.23371189E+04  d E =-.265193E-03  mag=     6.0000
       N       E                     dE             d eps       ncg     rms          rms(c)
DAV:   1    -0.231624056182E+04    0.59866E-03   -0.69798E-02  4464   0.256E-01    0.980E-02
RMM:   2    -0.231624128438E+04   -0.72256E-03   -0.76697E-03  5864   0.498E-02    0.612E-02
RMM:   3    -0.231624135271E+04   -0.68330E-04   -0.78319E-04  3511   0.206E-02    0.701E-02
RMM:   4    -0.231624131772E+04    0.34989E-04   -0.10263E-04  2909   0.626E-03    0.280E-02
RMM:   5    -0.231624131167E+04    0.60534E-05   -0.33559E-05  2907   0.478E-03
  89 F= -.23371192E+04 E0= -.23371192E+04  d E =-.268734E-03  mag=     6.0000
       N       E                     dE             d eps       ncg     rms          rms(c)
DAV:   1    -0.231624128052E+04    0.37205E-04   -0.11522E-03  5272   0.337E-02    0.172E-02
RMM:   2    -0.231624129570E+04   -0.15178E-04   -0.15200E-04  3152   0.825E-03    0.191E-02
RMM:   3    -0.231624129315E+04    0.25451E-05   -0.19072E-05  2674   0.500E-03
  90 F= -.23371192E+04 E0= -.23371192E+04  d E =-.265208E-03  mag=     6.0000
       N       E                     dE             d eps       ncg     rms          rms(c)
DAV:   1    -0.231624081995E+04    0.47574E-03   -0.64809E-02  4464   0.251E-01    0.975E-02
RMM:   2    -0.231624142419E+04   -0.60424E-03   -0.65410E-03  5871   0.482E-02    0.480E-02
RMM:   3    -0.231624147284E+04   -0.48648E-04   -0.64515E-04  3526   0.205E-02    0.505E-02
RMM:   4    -0.231624146017E+04    0.12667E-04   -0.85951E-05  2921   0.583E-03    0.317E-02
RMM:   5    -0.231624145212E+04    0.80498E-05   -0.29641E-05  2882   0.453E-03
  91 F= -.23371195E+04 E0= -.23371195E+04  d E =-.287128E-03  mag=     6.0000
       N       E                     dE             d eps       ncg     rms          rms(c)
DAV:   1    -0.231624138354E+04    0.76626E-04   -0.35346E-03  5384   0.591E-02    0.252E-02
RMM:   2    -0.231624142070E+04   -0.37160E-04   -0.39076E-04  4422   0.138E-02    0.197E-02
RMM:   3    -0.231624142126E+04   -0.55876E-06   -0.44263E-05  2850   0.663E-03
  92 F= -.23371195E+04 E0= -.23371195E+04  d E =-.286886E-03  mag=     6.0000
       N       E                     dE             d eps       ncg     rms          rms(c)
DAV:   1    -0.231624108228E+04    0.33843E-03   -0.51626E-02  4464   0.216E-01    0.789E-02
RMM:   2    -0.231624155051E+04   -0.46824E-03   -0.50323E-03  5858   0.416E-02    0.409E-02
RMM:   3    -0.231624158525E+04   -0.34740E-04   -0.51102E-04  3194   0.173E-02    0.344E-02
RMM:   4    -0.231624158522E+04    0.34357E-07   -0.68388E-05  2940   0.496E-03
  93 F= -.23371197E+04 E0= -.23371197E+04  d E =-.285528E-03  mag=     6.0000
       N       E                     dE             d eps       ncg     rms          rms(c)
DAV:   1    -0.231624130457E+04    0.28069E-03   -0.23952E-02  4528   0.147E-01    0.569E-02
RMM:   2    -0.231624153120E+04   -0.22664E-03   -0.23772E-03  5918   0.288E-02    0.481E-02
RMM:   3    -0.231624155032E+04   -0.19116E-04   -0.27504E-04  2960   0.123E-02    0.485E-02
RMM:   4    -0.231624153194E+04    0.18383E-04   -0.33134E-05  2876   0.403E-03    0.163E-02
RMM:   5    -0.231624152908E+04    0.28608E-05   -0.14313E-05  2918   0.311E-03
  94 F= -.23371198E+04 E0= -.23371198E+04  d E =-.313078E-03  mag=     6.0000
       N       E                     dE             d eps       ncg     rms          rms(c)
DAV:   1    -0.231624134379E+04    0.18815E-03   -0.45335E-02  4464   0.203E-01    0.735E-02
RMM:   2    -0.231624169360E+04   -0.34981E-03   -0.38038E-03  5938   0.387E-02    0.369E-02
RMM:   3    -0.231624172125E+04   -0.27647E-04   -0.37651E-04  3302   0.162E-02    0.417E-02
RMM:   4    -0.231624171189E+04    0.93588E-05   -0.49666E-05  2902   0.460E-03
  95 F= -.23371201E+04 E0= -.23371201E+04  d E =-.283818E-03  mag=     6.0000
       N       E                     dE             d eps       ncg     rms          rms(c)
DAV:   1    -0.231624140341E+04    0.31784E-03   -0.33815E-02  4544   0.175E-01    0.652E-02
RMM:   2    -0.231624166840E+04   -0.26499E-03   -0.28755E-03  5891   0.330E-02    0.425E-02
RMM:   3    -0.231624169614E+04   -0.27734E-04   -0.32413E-04  3176   0.145E-02    0.531E-02
RMM:   4    -0.231624167359E+04    0.22546E-04   -0.43982E-05  2882   0.442E-03    0.204E-02
RMM:   5    -0.231624167188E+04    0.17148E-05   -0.19545E-05  2900   0.329E-03
  96 F= -.23371201E+04 E0= -.23371201E+04  d E =-.331875E-03  mag=     6.0000
       N       E                     dE             d eps       ncg     rms          rms(c)
DAV:   1    -0.231624143355E+04    0.24004E-03   -0.53427E-02  4464   0.217E-01    0.770E-02
RMM:   2    -0.231624181559E+04   -0.38204E-03   -0.41405E-03  5936   0.409E-02    0.415E-02
RMM:   3    -0.231624184509E+04   -0.29500E-04   -0.41279E-04  3386   0.165E-02    0.448E-02
RMM:   4    -0.231624183320E+04    0.11892E-04   -0.53338E-05  2890   0.496E-03    0.264E-02
RMM:   5    -0.231624182935E+04    0.38489E-05   -0.24047E-05  2897   0.396E-03
  97 F= -.23371204E+04 E0= -.23371204E+04  d E =-.301991E-03  mag=     6.0000
       N       E                     dE             d eps       ncg     rms          rms(c)
DAV:   1    -0.231624149256E+04    0.34064E-03   -0.36362E-02  4544   0.179E-01    0.645E-02
RMM:   2    -0.231624175763E+04   -0.26507E-03   -0.28555E-03  6029   0.349E-02    0.369E-02
RMM:   3    -0.231624177666E+04   -0.19031E-04   -0.28839E-04  3125   0.133E-02    0.371E-02
RMM:   4    -0.231624176659E+04    0.10073E-04   -0.35807E-05  2883   0.444E-03    0.213E-02
RMM:   5    -0.231624176629E+04    0.30160E-06   -0.19789E-05  2890   0.339E-03
  98 F= -.23371205E+04 E0= -.23371205E+04  d E =-.358640E-03  mag=     6.0000
       N       E                     dE             d eps       ncg     rms          rms(c)
DAV:   1    -0.231624160693E+04    0.15966E-03   -0.49375E-02  4464   0.207E-01    0.762E-02
RMM:   2    -0.231624192449E+04   -0.31756E-03   -0.34569E-03  5955   0.387E-02    0.410E-02
RMM:   3    -0.231624194970E+04   -0.25211E-04   -0.34914E-04  3364   0.158E-02    0.469E-02
RMM:   4    -0.231624193534E+04    0.14357E-04   -0.46446E-05  2883   0.493E-03    0.240E-02
RMM:   5    -0.231624193312E+04    0.22227E-05   -0.23404E-05  2898   0.387E-03
  99 F= -.23371208E+04 E0= -.23371208E+04  d E =-.305083E-03  mag=     6.0000
       N       E                     dE             d eps       ncg     rms          rms(c)
DAV:   1    -0.231624161073E+04    0.32461E-03   -0.40318E-02  4496   0.187E-01    0.694E-02
RMM:   2    -0.231624187402E+04   -0.26329E-03   -0.28555E-03  6001   0.358E-02    0.391E-02
RMM:   3    -0.231624189462E+04   -0.20594E-04   -0.29083E-04  3229   0.138E-02    0.443E-02
RMM:   4    -0.231624187975E+04    0.14870E-04   -0.38588E-05  2880   0.461E-03    0.220E-02
RMM:   5    -0.231624187885E+04    0.90296E-06   -0.21309E-05  2894   0.355E-03
 100 F= -.23371208E+04 E0= -.23371208E+04  d E =-.376358E-03  mag=     6.0000
       N       E                     dE             d eps       ncg     rms          rms(c)
DAV:   1    -0.231624172078E+04    0.15897E-03   -0.60246E-02  4464   0.218E-01    0.831E-02
RMM:   2    -0.231624208845E+04   -0.36767E-03   -0.40282E-03  5956   0.412E-02    0.463E-02
RMM:   3    -0.231624211848E+04   -0.30033E-04   -0.41306E-04  3428   0.169E-02    0.535E-02
RMM:   4    -0.231624209844E+04    0.20041E-04   -0.56922E-05  2886   0.540E-03    0.267E-02
RMM:   5    -0.231624209693E+04    0.15075E-05   -0.29531E-05  2914   0.426E-03
 101 F= -.23371212E+04 E0= -.23371212E+04  d E =-.343373E-03  mag=     6.0000
       N       E                     dE             d eps       ncg     rms          rms(c)
DAV:   1    -0.231624185967E+04    0.23877E-03   -0.32105E-02  4544   0.159E-01    0.613E-02
RMM:   2    -0.231624206047E+04   -0.20080E-03   -0.21894E-03  5946   0.316E-02    0.352E-02
RMM:   3    -0.231624207587E+04   -0.15402E-04   -0.22452E-04  3096   0.121E-02    0.391E-02
RMM:   4    -0.231624206449E+04    0.11384E-04   -0.31244E-05  2880   0.423E-03    0.199E-02
RMM:   5    -0.231624206423E+04    0.26141E-06   -0.16979E-05  2891   0.318E-03
 102 F= -.23371212E+04 E0= -.23371212E+04  d E =-.402844E-03  mag=     6.0000
       N       E                     dE             d eps       ncg     rms          rms(c)
DAV:   1    -0.231624190292E+04    0.16157E-03   -0.62013E-02  4464   0.210E-01    0.824E-02
RMM:   2    -0.231624229832E+04   -0.39540E-03   -0.43216E-03  5935   0.406E-02    0.471E-02
RMM:   3    -0.231624232844E+04   -0.30123E-04   -0.43988E-04  3372   0.167E-02    0.513E-02
RMM:   4    -0.231624231042E+04    0.18024E-04   -0.60018E-05  2897   0.545E-03    0.282E-02
RMM:   5    -0.231624230917E+04    0.12520E-05   -0.31880E-05  2916   0.431E-03
 103 F= -.23371216E+04 E0= -.23371216E+04  d E =-.360230E-03  mag=     6.0000
       N       E                     dE             d eps       ncg     rms          rms(c)
DAV:   1    -0.231624207823E+04    0.23219E-03   -0.31409E-02  4544   0.150E-01    0.594E-02
RMM:   2    -0.231624228340E+04   -0.20517E-03   -0.22315E-03  5944   0.306E-02    0.357E-02
RMM:   3    -0.231624229945E+04   -0.16049E-04   -0.23291E-04  3043   0.118E-02    0.394E-02
RMM:   4    -0.231624228776E+04    0.11689E-04   -0.30817E-05  2881   0.409E-03    0.198E-02
RMM:   5    -0.231624228743E+04    0.33338E-06   -0.17623E-05  2892   0.316E-03
 104 F= -.23371217E+04 E0= -.23371217E+04  d E =-.421270E-03  mag=     6.0000
       N       E                     dE             d eps       ncg     rms          rms(c)
DAV:   1    -0.231624207740E+04    0.21036E-03   -0.61035E-02  4464   0.218E-01    0.874E-02
RMM:   2    -0.231624249300E+04   -0.41560E-03   -0.45728E-03  5929   0.426E-02    0.454E-02
RMM:   3    -0.231624252318E+04   -0.30187E-04   -0.47480E-04  3496   0.182E-02    0.474E-02
RMM:   4    -0.231624250773E+04    0.15450E-04   -0.61050E-05  2894   0.560E-03    0.284E-02
RMM:   5    -0.231624250663E+04    0.11003E-05   -0.31933E-05  2916   0.432E-03
 105 F= -.23371220E+04 E0= -.23371220E+04  d E =-.339948E-03  mag=     6.0000
       N       E                     dE             d eps       ncg     rms          rms(c)
DAV:   1    -0.231624236291E+04    0.14483E-03   -0.15222E-02  4680   0.109E-01    0.445E-02
RMM:   2    -0.231624247073E+04   -0.10782E-03   -0.11764E-03  5598   0.234E-02    0.246E-02
RMM:   3    -0.231624247932E+04   -0.85929E-05   -0.13133E-04  2931   0.972E-03    0.254E-02
RMM:   4    -0.231624247408E+04    0.52358E-05   -0.16016E-05  2871   0.333E-03
 106 F= -.23371220E+04 E0= -.23371220E+04  d E =-.368315E-03  mag=     6.0000
       N       E                     dE             d eps       ncg     rms          rms(c)
DAV:   1    -0.231624210337E+04    0.37595E-03   -0.69829E-02  4448   0.232E-01    0.922E-02
RMM:   2    -0.231624267131E+04   -0.56795E-03   -0.61271E-03  5881   0.456E-02    0.580E-02
RMM:   3    -0.231624273546E+04   -0.64141E-04   -0.68593E-04  3466   0.192E-02    0.773E-02
RMM:   4    -0.231624269189E+04    0.43567E-04   -0.88148E-05  2898   0.596E-03    0.272E-02
RMM:   5    -0.231624268567E+04    0.62161E-05   -0.32230E-05  2968   0.460E-03
 107 F= -.23371224E+04 E0= -.23371224E+04  d E =-.351617E-03  mag=     6.0000
       N       E                     dE             d eps       ncg     rms          rms(c)
DAV:   1    -0.231624254639E+04    0.14550E-03   -0.12087E-02  4816   0.969E-02    0.400E-02
RMM:   2    -0.231624264894E+04   -0.10255E-03   -0.10988E-03  5512   0.217E-02    0.277E-02
RMM:   3    -0.231624265442E+04   -0.54730E-05   -0.12997E-04  2915   0.885E-03    0.218E-02
RMM:   4    -0.231624264958E+04    0.48357E-05   -0.13310E-05  2874   0.319E-03
 108 F= -.23371224E+04 E0= -.23371224E+04  d E =-.374348E-03  mag=     6.0000
       N       E                     dE             d eps       ncg     rms          rms(c)
DAV:   1    -0.231624225165E+04    0.40276E-03   -0.77281E-02  4448   0.257E-01    0.997E-02
RMM:   2    -0.231624286714E+04   -0.61548E-03   -0.66544E-03  5846   0.490E-02    0.558E-02
RMM:   3    -0.231624293153E+04   -0.64391E-04   -0.71466E-04  3570   0.204E-02    0.739E-02
RMM:   4    -0.231624289351E+04    0.38014E-04   -0.94500E-05  2896   0.611E-03    0.305E-02
RMM:   5    -0.231624288994E+04    0.35769E-05   -0.34741E-05  2942   0.456E-03
 109 F= -.23371228E+04 E0= -.23371228E+04  d E =-.393398E-03  mag=     6.0000
       N       E                     dE             d eps       ncg     rms          rms(c)
DAV:   1    -0.231624262166E+04    0.27185E-03   -0.25546E-02  4640   0.148E-01    0.577E-02
RMM:   2    -0.231624282936E+04   -0.20770E-03   -0.22388E-03  5895   0.309E-02    0.340E-02
RMM:   3    -0.231624284653E+04   -0.17173E-04   -0.26486E-04  3030   0.121E-02    0.318E-02
RMM:   4    -0.231624283789E+04    0.86373E-05   -0.26050E-05  2880   0.411E-03
 110 F= -.23371228E+04 E0= -.23371228E+04  d E =-.430237E-03  mag=     6.0000
       N       E                     dE             d eps       ncg     rms          rms(c)
DAV:   1    -0.231624235950E+04    0.48703E-03   -0.81568E-02  4448   0.261E-01    0.994E-02
RMM:   2    -0.231624303481E+04   -0.67531E-03   -0.70359E-03  5876   0.496E-02    0.813E-02
RMM:   3    -0.231624308784E+04   -0.53025E-04   -0.79144E-04  3564   0.207E-02    0.811E-02
RMM:   4    -0.231624303910E+04    0.48734E-04   -0.98801E-05  2926   0.639E-03    0.278E-02
RMM:   5    -0.231624303470E+04    0.44018E-05   -0.36475E-05  2971   0.494E-03
 111 F= -.23371232E+04 E0= -.23371232E+04  d E =-.385447E-03  mag=     6.0000
       N       E                     dE             d eps       ncg     rms          rms(c)
DAV:   1    -0.231624272069E+04    0.31841E-03   -0.28966E-02  4576   0.156E-01    0.591E-02
RMM:   2    -0.231624295902E+04   -0.23833E-03   -0.25421E-03  5916   0.324E-02    0.386E-02
RMM:   3    -0.231624297429E+04   -0.15267E-04   -0.28052E-04  3030   0.122E-02    0.323E-02
RMM:   4    -0.231624296531E+04    0.89837E-05   -0.28230E-05  2885   0.425E-03
 112 F= -.23371233E+04 E0= -.23371233E+04  d E =-.429434E-03  mag=     6.0000
       N       E                     dE             d eps       ncg     rms          rms(c)
DAV:   1    -0.231624238029E+04    0.59399E-03   -0.10289E-01  4448   0.293E-01    0.116E-01
RMM:   2    -0.231624319217E+04   -0.81188E-03   -0.84832E-03  5864   0.555E-02    0.940E-02
RMM:   3    -0.231624325013E+04   -0.57953E-04   -0.94746E-04  3727   0.233E-02    0.938E-02
RMM:   4    -0.231624318259E+04    0.67531E-04   -0.12687E-04  2977   0.728E-03    0.311E-02
[...]
 163 F= -.23371324E+04 E0= -.23371324E+04  d E =-.290368E-03  mag=     6.0000
       N       E                     dE             d eps       ncg     rms          rms(c)
DAV:   1    -0.231624626859E+04    0.17066E-03   -0.13570E-02  4640   0.969E-02    0.422E-02
RMM:   2    -0.231624637767E+04   -0.10908E-03   -0.11832E-03  5485   0.217E-02    0.266E-02
RMM:   3    -0.231624638507E+04   -0.73954E-05   -0.12443E-04  2927   0.897E-03    0.246E-02
RMM:   4    -0.231624637991E+04    0.51526E-05   -0.14958E-05  2874   0.311E-03
 164 F= -.23371324E+04 E0= -.23371324E+04  d E =-.308002E-03  mag=     6.0000
       N       E                     dE             d eps       ncg     rms          rms(c)
DAV:   1    -0.231624605915E+04    0.32592E-03   -0.62497E-02  4448   0.211E-01    0.910E-02
RMM:   2    -0.231624652267E+04   -0.46352E-03   -0.49465E-03  5886   0.421E-02    0.698E-02
RMM:   3    -0.231624656461E+04   -0.41939E-04   -0.56516E-04  3388   0.177E-02    0.763E-02
RMM:   4    -0.231624651819E+04    0.46420E-04   -0.76230E-05  2926   0.593E-03    0.243E-02
RMM:   5    -0.231624651333E+04    0.48608E-05   -0.30942E-05  2965   0.466E-03
 165 F= -.23371327E+04 E0= -.23371327E+04  d E =-.292237E-03  mag=     6.0000
       N       E                     dE             d eps       ncg     rms          rms(c)
DAV:   1    -0.231624643457E+04    0.83617E-04   -0.47035E-03  5024   0.584E-02    0.263E-02
RMM:   2    -0.231624647117E+04   -0.36598E-04   -0.39204E-04  4429   0.135E-02    0.201E-02
RMM:   3    -0.231624647220E+04   -0.10278E-05   -0.48651E-05  2875   0.692E-03
 166 F= -.23371327E+04 E0= -.23371327E+04  d E =-.295333E-03  mag=     6.0000
       N       E                     dE             d eps       ncg     rms          rms(c)
DAV:   1    -0.231624611443E+04    0.35674E-03   -0.63162E-02  4448   0.211E-01    0.903E-02
RMM:   2    -0.231624652942E+04   -0.41499E-03   -0.46473E-03  5818   0.417E-02    0.483E-02
RMM:   3    -0.231624654958E+04   -0.20152E-04   -0.46310E-04  3333   0.173E-02    0.402E-02
RMM:   4    -0.231624654038E+04    0.91915E-05   -0.64883E-05  2938   0.561E-03
 167 F= -.23371329E+04 E0= -.23371329E+04  d E =-.257265E-03  mag=     6.0000
       N       E                     dE             d eps       ncg     rms          rms(c)
DAV:   1    -0.231624646821E+04    0.81370E-04   -0.35565E-03  5344   0.508E-02    0.349E-02
RMM:   2    -0.231624653263E+04   -0.64427E-04   -0.35850E-04  3980   0.119E-02    0.757E-02
RMM:   3    -0.231624648974E+04    0.42887E-04   -0.62327E-05  2873   0.644E-03    0.133E-02
RMM:   4    -0.231624648816E+04    0.15882E-05   -0.88932E-06  2888   0.212E-03
 168 F= -.23371329E+04 E0= -.23371329E+04  d E =-.251149E-03  mag=     6.0000
       N       E                     dE             d eps       ncg     rms          rms(c)
DAV:   1    -0.231624617191E+04    0.31784E-03   -0.65737E-02  4464   0.218E-01    0.925E-02
RMM:   2    -0.231624660002E+04   -0.42812E-03   -0.47352E-03  5831   0.429E-02    0.543E-02
RMM:   3    -0.231624662615E+04   -0.26123E-04   -0.49583E-04  3433   0.176E-02    0.522E-02
RMM:   4    -0.231624660299E+04    0.23154E-04   -0.64468E-05  2927   0.598E-03    0.276E-02
RMM:   5    -0.231624660542E+04   -0.24302E-05   -0.40113E-05  2926   0.479E-03
 169 F= -.23371332E+04 E0= -.23371332E+04  d E =-.277763E-03  mag=     6.0000
       N       E                     dE             d eps       ncg     rms          rms(c)
DAV:   1    -0.231624655353E+04    0.49465E-04   -0.19185E-03  5296   0.380E-02    0.170E-02
RMM:   2    -0.231624656745E+04   -0.13928E-04   -0.15563E-04  3348   0.886E-03    0.106E-02
RMM:   3    -0.231624656870E+04   -0.12487E-05   -0.18862E-05  2774   0.529E-03
 170 F= -.23371332E+04 E0= -.23371332E+04  d E =-.269117E-03  mag=     6.0000
       N       E                     dE             d eps       ncg     rms          rms(c)
DAV:   1    -0.231624629708E+04    0.27037E-03   -0.57381E-02  4488   0.209E-01    0.889E-02
RMM:   2    -0.231624669783E+04   -0.40075E-03   -0.44441E-03  5838   0.414E-02    0.526E-02
RMM:   3    -0.231624673355E+04   -0.35724E-04   -0.47867E-04  3428   0.174E-02    0.634E-02
RMM:   4    -0.231624670593E+04    0.27627E-04   -0.66693E-05  2908   0.564E-03    0.291E-02
RMM:   5    -0.231624670162E+04    0.43046E-05   -0.31376E-05  2922   0.438E-03
 171 F= -.23371334E+04 E0= -.23371334E+04  d E =-.248472E-03  mag=     6.0000
       N       E                     dE             d eps       ncg     rms          rms(c)
DAV:   1    -0.231624666075E+04    0.45175E-04   -0.18579E-03  5312   0.383E-02    0.174E-02
RMM:   2    -0.231624667524E+04   -0.14492E-04   -0.15957E-04  3434   0.912E-03    0.129E-02
RMM:   3    -0.231624667580E+04   -0.55160E-06   -0.20633E-05  2751   0.538E-03
 172 F= -.23371334E+04 E0= -.23371334E+04  d E =-.244028E-03  mag=     6.0000
       N       E                     dE             d eps       ncg     rms          rms(c)
DAV:   1    -0.231624630858E+04    0.36667E-03   -0.59144E-02  4456   0.212E-01    0.879E-02
RMM:   2    -0.231624674902E+04   -0.44044E-03   -0.48808E-03  5861   0.422E-02    0.439E-02
RMM:   3    -0.231624677190E+04   -0.22881E-04   -0.48312E-04  3403   0.179E-02    0.318E-02
RMM:   4    -0.231624676911E+04    0.27892E-05   -0.61894E-05  2951   0.531E-03
 173 F= -.23371337E+04 E0= -.23371337E+04  d E =-.245588E-03  mag=     6.0000
       N       E                     dE             d eps       ncg     rms          rms(c)
DAV:   1    -0.231624671275E+04    0.59145E-04   -0.26403E-03  5424   0.455E-02    0.291E-02
RMM:   2    -0.231624676079E+04   -0.48038E-04   -0.28424E-04  3786   0.107E-02    0.627E-02
RMM:   3    -0.231624673233E+04    0.28462E-04   -0.47595E-05  2853   0.598E-03    0.109E-02
RMM:   4    -0.231624673103E+04    0.12946E-05   -0.64924E-06  2830   0.187E-03
 174 F= -.23371337E+04 E0= -.23371337E+04  d E =-.240617E-03  mag=     6.0000
       N       E                     dE             d eps       ncg     rms          rms(c)
DAV:   1    -0.231624634188E+04    0.39045E-03   -0.55111E-02  4452   0.200E-01    0.818E-02
RMM:   2    -0.231624676577E+04   -0.42389E-03   -0.46905E-03  5882   0.404E-02    0.403E-02
RMM:   3    -0.231624678794E+04   -0.22171E-04   -0.45775E-04  3359   0.168E-02    0.281E-02
RMM:   4    -0.231624679155E+04   -0.36090E-05   -0.64595E-05  2944   0.513E-03
 175 F= -.23371339E+04 E0= -.23371339E+04  d E =-.264481E-03  mag=     6.0000
       N       E                     dE             d eps       ncg     rms          rms(c)
DAV:   1    -0.231624665828E+04    0.12966E-03   -0.72260E-03  4944   0.728E-02    0.351E-02
RMM:   2    -0.231624672174E+04   -0.63455E-04   -0.65638E-04  4933   0.160E-02    0.356E-02
RMM:   3    -0.231624672265E+04   -0.91882E-06   -0.78651E-05  2895   0.747E-03
 176 F= -.23371339E+04 E0= -.23371339E+04  d E =-.270477E-03  mag=     6.0000
       N       E                     dE             d eps       ncg     rms          rms(c)
DAV:   1    -0.231624630320E+04    0.41854E-03   -0.59857E-02  4448   0.211E-01    0.888E-02
RMM:   2    -0.231624674742E+04   -0.44422E-03   -0.49236E-03  5865   0.423E-02    0.475E-02
RMM:   3    -0.231624678021E+04   -0.32791E-04   -0.52785E-04  3354   0.172E-02    0.498E-02
RMM:   4    -0.231624676936E+04    0.10845E-04   -0.70999E-05  2912   0.528E-03    0.354E-02
RMM:   5    -0.231624675848E+04    0.10887E-04   -0.28608E-05  2936   0.434E-03    0.107E-02
RMM:   6    -0.231624675846E+04    0.19572E-07   -0.93137E-06  2874   0.378E-03
 177 F= -.23371342E+04 E0= -.23371342E+04  d E =-.233654E-03  mag=     6.0000
       N       E                     dE             d eps       ncg     rms          rms(c)
DAV:   1    -0.231624671444E+04    0.44040E-04   -0.15067E-03  5136   0.336E-02    0.140E-02
RMM:   2    -0.231624672602E+04   -0.11582E-04   -0.12716E-04  3199   0.753E-03    0.832E-03
RMM:   3    -0.231624672744E+04   -0.14171E-05   -0.16321E-05  2694   0.462E-03
 178 F= -.23371342E+04 E0= -.23371342E+04  d E =-.234414E-03  mag=     6.0000
       N       E                     dE             d eps       ncg     rms          rms(c)
DAV:   1    -0.231624629923E+04    0.42679E-03   -0.62201E-02  4472   0.217E-01    0.896E-02
RMM:   2    -0.231624677319E+04   -0.47397E-03   -0.52366E-03  5845   0.431E-02    0.459E-02
RMM:   3    -0.231624679814E+04   -0.24950E-04   -0.51435E-04  3379   0.176E-02    0.357E-02
RMM:   4    -0.231624679289E+04    0.52548E-05   -0.66890E-05  2937   0.560E-03
 179 F= -.23371344E+04 E0= -.23371344E+04  d E =-.237973E-03  mag=     6.0000
       N       E                     dE             d eps       ncg     rms          rms(c)
DAV:   1    -0.231624674060E+04    0.57544E-04   -0.17838E-03  5360   0.376E-02    0.263E-02
RMM:   2    -0.231624678220E+04   -0.41597E-04   -0.21674E-04  3366   0.911E-03    0.619E-02
RMM:   3    -0.231624675342E+04    0.28777E-04   -0.40519E-05  2832   0.536E-03    0.945E-03
RMM:   4    -0.231624675241E+04    0.10066E-05   -0.63745E-06  2789   0.170E-03
 180 F= -.23371344E+04 E0= -.23371344E+04  d E =-.227863E-03  mag=     6.0000
       N       E                     dE             d eps       ncg     rms          rms(c)
DAV:   1    -0.231624628183E+04    0.47159E-03   -0.62637E-02  4464   0.215E-01    0.903E-02
RMM:   2    -0.231624679044E+04   -0.50861E-03   -0.55849E-03  5895   0.438E-02    0.487E-02
RMM:   3    -0.231624682299E+04   -0.32547E-04   -0.56677E-04  3441   0.185E-02    0.407E-02
RMM:   4    -0.231624681171E+04    0.11279E-04   -0.71130E-05  2936   0.569E-03    0.257E-02
RMM:   5    -0.231624680810E+04    0.36111E-05   -0.29517E-05  2900   0.458E-03
 181 F= -.23371346E+04 E0= -.23371346E+04  d E =-.228647E-03  mag=     6.0000
       N       E                     dE             d eps       ncg     rms          rms(c)
DAV:   1    -0.231624678193E+04    0.29778E-04   -0.58287E-04  5240   0.216E-02    0.152E-02
RMM:   2    -0.231624679290E+04   -0.10974E-04   -0.71644E-05  2997   0.547E-03    0.283E-02
RMM:   3    -0.231624678683E+04    0.60740E-05   -0.11956E-05  2582   0.345E-03
 182 F= -.23371346E+04 E0= -.23371346E+04  d E =-.224379E-03  mag=     6.0000
       N       E                     dE             d eps       ncg     rms          rms(c)
DAV:   1    -0.231624630807E+04    0.48483E-03   -0.60883E-02  4472   0.213E-01    0.912E-02
RMM:   2    -0.231624680843E+04   -0.50036E-03   -0.54861E-03  5869   0.432E-02    0.521E-02
RMM:   3    -0.231624684579E+04   -0.37363E-04   -0.55563E-04  3369   0.174E-02    0.550E-02
RMM:   4    -0.231624682600E+04    0.19788E-04   -0.74487E-05  2906   0.576E-03    0.309E-02
RMM:   5    -0.231624682331E+04    0.26983E-05   -0.35101E-05  2921   0.448E-03
 183 F= -.23371349E+04 E0= -.23371349E+04  d E =-.228461E-03  mag=     6.0000
       N       E                     dE             d eps       ncg     rms          rms(c)
DAV:   1    -0.231624678108E+04    0.44924E-04   -0.95439E-04  5176   0.275E-02    0.134E-02
RMM:   2    -0.231624679010E+04   -0.90221E-05   -0.99981E-05  3089   0.673E-03
 184 F= -.23371349E+04 E0= -.23371349E+04  d E =-.220006E-03  mag=     6.0000
       N       E                     dE             d eps       ncg     rms          rms(c)
DAV:   1    -0.231624634434E+04    0.43674E-03   -0.56520E-02  4456   0.194E-01    0.830E-02
RMM:   2    -0.231624681967E+04   -0.47533E-03   -0.51668E-03  6105   0.415E-02    0.487E-02
RMM:   3    -0.231624685298E+04   -0.33312E-04   -0.52950E-04  3338   0.164E-02    0.453E-02
RMM:   4    -0.231624684278E+04    0.10205E-04   -0.64523E-05  2909   0.528E-03    0.305E-02
RMM:   5    -0.231624684022E+04    0.25508E-05   -0.33734E-05  2922   0.429E-03
 185 F= -.23371351E+04 E0= -.23371351E+04  d E =-.222934E-03  mag=     6.0000
       N       E                     dE             d eps       ncg     rms          rms(c)
DAV:   1    -0.231624678389E+04    0.58884E-04   -0.20082E-03  5160   0.372E-02    0.174E-02
RMM:   2    -0.231624680269E+04   -0.18797E-04   -0.19891E-04  3360   0.898E-03    0.139E-02
RMM:   3    -0.231624680322E+04   -0.53467E-06   -0.23442E-05  2746   0.527E-03
 186 F= -.23371351E+04 E0= -.23371351E+04  d E =-.219221E-03  mag=     6.0000
       N       E                     dE             d eps       ncg     rms          rms(c)
DAV:   1    -0.231624644801E+04    0.35468E-03   -0.59720E-02  4468   0.208E-01    0.887E-02
RMM:   2    -0.231624688319E+04   -0.43517E-03   -0.48286E-03  5842   0.413E-02    0.470E-02
RMM:   3    -0.231624691454E+04   -0.31352E-04   -0.48356E-04  3381   0.177E-02    0.510E-02
RMM:   4    -0.231624690144E+04    0.13100E-04   -0.67612E-05  2910   0.532E-03    0.305E-02
RMM:   5    -0.231624689406E+04    0.73788E-05   -0.28733E-05  2925   0.431E-03
 187 F= -.23371353E+04 E0= -.23371353E+04  d E =-.236496E-03  mag=     6.0000
       N       E                     dE             d eps       ncg     rms          rms(c)
DAV:   1    -0.231624682756E+04    0.73879E-04   -0.36107E-03  5256   0.515E-02    0.233E-02
RMM:   2    -0.231624685678E+04   -0.29216E-04   -0.31326E-04  4041   0.120E-02    0.170E-02
RMM:   3    -0.231624685782E+04   -0.10473E-05   -0.36476E-05  2843   0.635E-03
 188 F= -.23371353E+04 E0= -.23371353E+04  d E =-.236771E-03  mag=     6.0000
       N       E                     dE             d eps       ncg     rms          rms(c)
DAV:   1    -0.231624647181E+04    0.38496E-03   -0.50945E-02  4472   0.178E-01    0.769E-02
RMM:   2    -0.231624687065E+04   -0.39884E-03   -0.43738E-03  5870   0.369E-02    0.429E-02
RMM:   3    -0.231624689632E+04   -0.25665E-04   -0.43543E-04  3139   0.155E-02    0.365E-02
RMM:   4    -0.231624689565E+04    0.66936E-06   -0.60446E-05  2913   0.474E-03
 189 F= -.23371355E+04 E0= -.23371355E+04  d E =-.203958E-03  mag=     6.0000
       N       E                     dE             d eps       ncg     rms          rms(c)
DAV:   1    -0.231624683551E+04    0.60807E-04   -0.22312E-03  5272   0.379E-02    0.238E-02
RMM:   2    -0.231624686693E+04   -0.31412E-04   -0.23301E-04  3356   0.898E-03    0.427E-02
RMM:   3    -0.231624685467E+04    0.12259E-04   -0.34652E-05  2812   0.536E-03    0.115E-02
RMM:   4    -0.231624685395E+04    0.71313E-06   -0.55747E-06  2713   0.168E-03
 190 F= -.23371355E+04 E0= -.23371355E+04  d E =-.197905E-03  mag=     6.0000
       N       E                     dE             d eps       ncg     rms          rms(c)
DAV:   1    -0.231624648745E+04    0.36722E-03   -0.58405E-02  4468   0.210E-01    0.907E-02
RMM:   2    -0.231624689286E+04   -0.40541E-03   -0.45371E-03  5852   0.412E-02    0.454E-02
RMM:   3    -0.231624691912E+04   -0.26268E-04   -0.46337E-04  3414   0.175E-02    0.457E-02
RMM:   4    -0.231624690708E+04    0.12041E-04   -0.62161E-05  2907   0.540E-03    0.292E-02
RMM:   5    -0.231624690384E+04    0.32457E-05   -0.30603E-05  2906   0.433E-03
 191 F= -.23371357E+04 E0= -.23371357E+04  d E =-.234697E-03  mag=     6.0000
       N       E                     dE             d eps       ncg     rms          rms(c)
DAV:   1    -0.231624683500E+04    0.72081E-04   -0.28240E-03  5400   0.468E-02    0.216E-02
RMM:   2    -0.231624685678E+04   -0.21778E-04   -0.23867E-04  3696   0.108E-02    0.140E-02
RMM:   3    -0.231624685819E+04   -0.14090E-05   -0.28354E-05  2810   0.600E-03
 192 F= -.23371357E+04 E0= -.23371357E+04  d E =-.230439E-03  mag=     6.0000
       N       E                     dE             d eps       ncg     rms          rms(c)
DAV:   1    -0.231624655746E+04    0.29932E-03   -0.44662E-02  4456   0.173E-01    0.746E-02
RMM:   2    -0.231624689394E+04   -0.33648E-03   -0.36796E-03  5842   0.352E-02    0.472E-02
RMM:   3    -0.231624692842E+04   -0.34478E-04   -0.41013E-04  3126   0.151E-02    0.573E-02
RMM:   4    -0.231624690562E+04    0.22800E-04   -0.54770E-05  2903   0.486E-03    0.240E-02
RMM:   5    -0.231624690079E+04    0.48230E-05   -0.21610E-05  2937   0.379E-03
 193 F= -.23371359E+04 E0= -.23371359E+04  d E =-.181943E-03  mag=     6.0000
       N       E                     dE             d eps       ncg     rms          rms(c)
DAV:   1    -0.231624684130E+04    0.64319E-04   -0.29547E-03  5080   0.448E-02    0.201E-02
RMM:   2    -0.231624686557E+04   -0.24269E-04   -0.25854E-04  3619   0.106E-02    0.152E-02
RMM:   3    -0.231624686681E+04   -0.12414E-05   -0.30802E-05  2809   0.591E-03
 194 F= -.23371359E+04 E0= -.23371359E+04  d E =-.184382E-03  mag=     6.0000
       N       E                     dE             d eps       ncg     rms          rms(c)
DAV:   1    -0.231624666845E+04    0.19711E-03   -0.37706E-02  4456   0.159E-01    0.692E-02
RMM:   2    -0.231624692995E+04   -0.26149E-03   -0.29255E-03  5808   0.319E-02    0.345E-02
RMM:   3    -0.231624694121E+04   -0.11268E-04   -0.29043E-04  3105   0.140E-02    0.213E-02
RMM:   4    -0.231624693929E+04    0.19241E-05   -0.41655E-05  2976   0.421E-03
 195 F= -.23371361E+04 E0= -.23371361E+04  d E =-.190993E-03  mag=     6.0000
       N       E                     dE             d eps       ncg     rms          rms(c)
DAV:   1    -0.231624682902E+04    0.11219E-03   -0.91971E-03  4640   0.788E-02    0.383E-02
RMM:   2    -0.231624691319E+04   -0.84167E-04   -0.75646E-04  5110   0.171E-02    0.537E-02
RMM:   3    -0.231624689923E+04    0.13965E-04   -0.93550E-05  2897   0.814E-03    0.218E-02
RMM:   4    -0.231624689481E+04    0.44141E-05   -0.10955E-05  2894   0.261E-03
 196 F= -.23371361E+04 E0= -.23371361E+04  d E =-.205689E-03  mag=     6.0000
       N       E                     dE             d eps       ncg     rms          rms(c)
DAV:   1    -0.231624666191E+04    0.23731E-03   -0.37251E-02  4456   0.161E-01    0.676E-02
RMM:   2    -0.231624691808E+04   -0.25617E-03   -0.28784E-03  5827   0.323E-02    0.333E-02
RMM:   3    -0.231624692798E+04   -0.98945E-05   -0.26756E-04  3097   0.133E-02    0.228E-02
RMM:   4    -0.231624692983E+04   -0.18549E-05   -0.41867E-05  2935   0.432E-03
 197 F= -.23371363E+04 E0= -.23371363E+04  d E =-.178159E-03  mag=     6.0000
       N       E                     dE             d eps       ncg     rms          rms(c)
DAV:   1    -0.231624687575E+04    0.52233E-04   -0.21965E-03  5288   0.397E-02    0.219E-02
RMM:   2    -0.231624690214E+04   -0.26397E-04   -0.20064E-04  3418   0.926E-03    0.389E-02
RMM:   3    -0.231624689241E+04    0.97374E-05   -0.29002E-05  2798   0.543E-03
 198 F= -.23371363E+04 E0= -.23371363E+04  d E =-.176097E-03  mag=     6.0000
       N       E                     dE             d eps       ncg     rms          rms(c)
DAV:   1    -0.231624667841E+04    0.22373E-03   -0.35574E-02  4456   0.164E-01    0.698E-02
RMM:   2    -0.231624691832E+04   -0.23991E-03   -0.26982E-03  5780   0.325E-02    0.389E-02
RMM:   3    -0.231624693312E+04   -0.14805E-04   -0.26963E-04  3232   0.143E-02    0.416E-02
RMM:   4    -0.231624692224E+04    0.10879E-04   -0.39920E-05  2890   0.462E-03    0.233E-02
RMM:   5    -0.231624691999E+04    0.22551E-05   -0.21888E-05  2898   0.377E-03
 199 F= -.23371365E+04 E0= -.23371365E+04  d E =-.170372E-03  mag=     6.0000
       N       E                     dE             d eps       ncg     rms          rms(c)
DAV:   1    -0.231624687503E+04    0.47211E-04   -0.16124E-03  5248   0.356E-02    0.160E-02
RMM:   2    -0.231624688699E+04   -0.11959E-04   -0.13367E-04  3284   0.837E-03    0.111E-02
RMM:   3    -0.231624688755E+04   -0.55668E-06   -0.16301E-05  2695   0.499E-03
 200 F= -.23371365E+04 E0= -.23371365E+04  d E =-.168932E-03  mag=     6.0000
       N       E                     dE             d eps       ncg     rms          rms(c)
DAV:   1    -0.231624676049E+04    0.12650E-03   -0.25985E-02  4456   0.143E-01    0.616E-02
RMM:   2    -0.231624693659E+04   -0.17610E-03   -0.19959E-03  5739   0.284E-02    0.320E-02
RMM:   3    -0.231624694829E+04   -0.11702E-04   -0.20270E-04  3080   0.127E-02    0.357E-02
RMM:   4    -0.231624694127E+04    0.70258E-05   -0.30214E-05  2888   0.388E-03
 201 F= -.23371366E+04 E0= -.23371366E+04  d E =-.143026E-03  mag=     6.0000
