       N       E                     dE             d eps       ncg     rms          rms(c)
DAV:   1     0.129618679873E+05    0.12962E+05   -0.84216E+05  4560   0.143E+03
DAV:   2    -0.110636888667E+04   -0.14068E+05   -0.13469E+05  5080   0.327E+02
DAV:   3    -0.248663312280E+04   -0.13803E+04   -0.13664E+04  5520   0.111E+02
DAV:   4    -0.252409885095E+04   -0.37466E+02   -0.37291E+02  6160   0.251E+01
DAV:   5    -0.252495485180E+04   -0.85600E+00   -0.85435E+00  5800   0.304E+00    0.170E+02
RMM:   6    -0.149172152637E+04    0.10332E+04   -0.19325E+03  4512   0.378E+01    0.722E+01
RMM:   7    -0.166593963129E+04   -0.17422E+03   -0.28849E+02  5187   0.144E+01    0.514E+01
RMM:   8    -0.172415843406E+04   -0.58219E+02   -0.62371E+01  5355   0.775E+00    0.470E+01
RMM:   9    -0.177405576433E+04   -0.49897E+02   -0.59794E+01  5084   0.723E+00    0.338E+01
RMM:  10    -0.191797198322E+04   -0.14392E+03   -0.65886E+01  5304   0.778E+00    0.256E+01
RMM:  11    -0.198762738275E+04   -0.69655E+02   -0.27488E+01  5218   0.468E+00    0.226E+01
RMM:  12    -0.205839727770E+04   -0.70770E+02   -0.26214E+01  5082   0.406E+00    0.167E+01
RMM:  13    -0.213100172538E+04   -0.72604E+02   -0.33366E+01  5241   0.452E+00    0.147E+01
RMM:  14    -0.223412356510E+04   -0.10312E+03   -0.76731E+01  4569   0.642E+00    0.100E+01
RMM:  15    -0.228505057169E+04   -0.50927E+02   -0.39869E+01  4590   0.482E+00    0.571E+00
RMM:  16    -0.231329541912E+04   -0.28245E+02   -0.29061E+01  4629   0.371E+00    0.427E+00
RMM:  17    -0.231655208040E+04   -0.32567E+01   -0.42087E+00  4849   0.203E+00    0.435E+00
RMM:  18    -0.231687026639E+04   -0.31819E+00   -0.10918E+00  5585   0.511E-01    0.421E+00
RMM:  19    -0.231710489591E+04   -0.23463E+00   -0.81335E-02  5271   0.221E-01    0.387E+00
RMM:  20    -0.231981641071E+04   -0.27115E+01   -0.22923E+00  4514   0.878E-01    0.268E+00
RMM:  21    -0.232087950008E+04   -0.10631E+01   -0.51972E-01  4562   0.485E-01    0.190E+00
RMM:  22    -0.232107109108E+04   -0.19159E+00   -0.12006E-01  4791   0.248E-01    0.140E+00
RMM:  23    -0.232110015169E+04   -0.29061E-01   -0.28408E-02  5302   0.101E-01    0.168E+00
RMM:  24    -0.232113187470E+04   -0.31723E-01   -0.13568E-02  4832   0.772E-02    0.945E-01
RMM:  25    -0.232121954623E+04   -0.87672E-01   -0.46615E-02  4572   0.157E-01    0.591E-01
RMM:  26    -0.232126292030E+04   -0.43374E-01   -0.20340E-02  4564   0.120E-01    0.640E-01
RMM:  27    -0.232127852502E+04   -0.15605E-01   -0.79124E-03  4750   0.564E-02    0.727E-01
RMM:  28    -0.232128495246E+04   -0.64274E-02   -0.75791E-03  4615   0.530E-02    0.109E+00
RMM:  29    -0.232128743559E+04   -0.24831E-02   -0.93963E-04  4245   0.256E-02    0.880E-01
RMM:  30    -0.232130674537E+04   -0.19310E-01   -0.94867E-03  4505   0.610E-02    0.475E-01
RMM:  31    -0.232131463283E+04   -0.78875E-02   -0.67833E-03  4531   0.516E-02    0.433E-01
RMM:  32    -0.232132228623E+04   -0.76534E-02   -0.34442E-03  4581   0.353E-02    0.632E-01
RMM:  33    -0.232133533620E+04   -0.13050E-01   -0.60119E-03  4779   0.391E-02    0.138E+00
RMM:  34    -0.232132907637E+04    0.62598E-02   -0.89630E-03  4757   0.448E-02    0.432E-01
RMM:  35    -0.232133091481E+04   -0.18384E-02   -0.33290E-03  4446   0.324E-02    0.414E-01
RMM:  36    -0.232133182551E+04   -0.91070E-03   -0.40821E-03  4686   0.323E-02    0.524E-01
RMM:  37    -0.232132866501E+04    0.31605E-02   -0.33089E-03  4529   0.310E-02    0.790E-01
RMM:  38    -0.232132214300E+04    0.65220E-02   -0.29166E-03  4828   0.265E-02    0.111E+00
RMM:  39    -0.232132442206E+04   -0.22791E-02   -0.16303E-04  3647   0.868E-03    0.102E+00
RMM:  40    -0.232132793783E+04   -0.35158E-02   -0.54141E-04  3830   0.107E-02    0.853E-01
RMM:  41    -0.232133753632E+04   -0.95985E-02   -0.74948E-03  4618   0.393E-02    0.430E-01
RMM:  42    -0.232134143369E+04   -0.38974E-02   -0.42857E-03  4436   0.346E-02    0.470E-01
RMM:  43    -0.232134368393E+04   -0.22502E-02   -0.16214E-03  4983   0.182E-02    0.611E-01
RMM:  44    -0.232134532220E+04   -0.16383E-02   -0.47158E-04  3948   0.104E-02    0.735E-01
RMM:  45    -0.232134422649E+04    0.10957E-02   -0.86130E-05  2986   0.605E-03    0.646E-01
RMM:  46    -0.232134107542E+04    0.31511E-02   -0.15299E-03  4275   0.168E-02    0.443E-01
RMM:  47    -0.232133863691E+04    0.24385E-02   -0.18458E-03  4307   0.211E-02    0.425E-01
RMM:  48    -0.232133546885E+04    0.31681E-02   -0.25406E-03  4847   0.228E-02    0.570E-01
RMM:  49    -0.232132883448E+04    0.66344E-02   -0.39867E-03  4774   0.288E-02    0.931E-01
RMM:  50    -0.232132264594E+04    0.61885E-02   -0.21578E-03  4502   0.229E-02    0.121E+00
RMM:  51    -0.232132617134E+04   -0.35254E-02   -0.28467E-04  3498   0.809E-03    0.105E+00
RMM:  52    -0.232133062600E+04   -0.44547E-02   -0.98593E-04  4102   0.142E-02    0.832E-01
RMM:  53    -0.232133517940E+04   -0.45534E-02   -0.20255E-03  4438   0.211E-02    0.578E-01
RMM:  54    -0.232133826027E+04   -0.30809E-02   -0.20532E-03  4581   0.212E-02    0.433E-01
RMM:  55    -0.232134000441E+04   -0.17441E-02   -0.11221E-03  4280   0.156E-02    0.415E-01
RMM:  56    -0.232134188130E+04   -0.18769E-02   -0.10269E-03  4408   0.150E-02    0.481E-01
RMM:  57    -0.232134264179E+04   -0.76049E-03   -0.25429E-04  3430   0.861E-03    0.523E-01
RMM:  58    -0.232134294394E+04   -0.30215E-03   -0.59599E-05  3027   0.453E-03    0.544E-01
RMM:  59    -0.232134235451E+04    0.58943E-03   -0.42651E-05  2852   0.395E-03    0.505E-01
RMM:  60    -0.232134031555E+04    0.20390E-02   -0.85646E-04  4029   0.127E-02    0.418E-01
RMM:  61    -0.232133750090E+04    0.28146E-02   -0.20126E-03  4383   0.207E-02    0.465E-01
RMM:  62    -0.232133624613E+04    0.12548E-02   -0.58775E-04  3899   0.119E-02    0.525E-01
RMM:  63    -0.232133575095E+04    0.49518E-03   -0.14028E-04  3190   0.556E-03    0.550E-01
RMM:  64    -0.232133461305E+04    0.11379E-02   -0.18221E-04  3432   0.653E-03    0.611E-01
RMM:  65    -0.232133427554E+04    0.33751E-03   -0.32720E-05  2906   0.426E-03    0.629E-01
RMM:  66    -0.232133409633E+04    0.17921E-03   -0.13024E-05  2741   0.239E-03    0.639E-01
RMM:  67    -0.232133408211E+04    0.14216E-04   -0.16289E-06  2461   0.180E-03    0.639E-01
RMM:  68    -0.232133420031E+04   -0.11820E-03   -0.13297E-06  2137   0.102E-03    0.633E-01
RMM:  69    -0.232133481086E+04   -0.61055E-03   -0.38340E-05  2689   0.277E-03    0.598E-01
RMM:  70    -0.232133650562E+04   -0.16948E-02   -0.39482E-04  3703   0.851E-03    0.506E-01
RMM:  71    -0.232133772845E+04   -0.12228E-02   -0.34909E-04  3516   0.904E-03    0.448E-01
RMM:  72    -0.232133804298E+04   -0.31454E-03   -0.78268E-05  3014   0.449E-03    0.434E-01
RMM:  73    -0.232133804455E+04   -0.15679E-05   -0.96200E-06  2671   0.260E-03
   1 F= -.23427791E+04 E0= -.23427753E+04  d E =-.760773E-02  mag=     4.0655
       N       E                     dE             d eps       ncg     rms          rms(c)
DAV:   1    -0.232131931273E+04    0.18730E-01   -0.21717E+00  4520   0.787E-01    0.537E-01
RMM:   2    -0.232132200769E+04   -0.26950E-02   -0.15176E-02  4330   0.696E-02    0.571E-01
RMM:   3    -0.232132274289E+04   -0.73520E-03   -0.22427E-03  4016   0.352E-02    0.677E-01
RMM:   4    -0.232132360969E+04   -0.86680E-03   -0.29982E-03  5138   0.236E-02    0.832E-01
RMM:   5    -0.232131847110E+04    0.51386E-02   -0.57852E-03  5228   0.328E-02    0.660E-01
RMM:   6    -0.232131013327E+04    0.83378E-02   -0.73489E-03  5254   0.382E-02    0.839E-01
RMM:   7    -0.232130089606E+04    0.92372E-02   -0.38927E-03  4561   0.299E-02    0.114E+00
RMM:   8    -0.232131929840E+04   -0.18402E-01   -0.17663E-02  4662   0.583E-02    0.483E-01
RMM:   9    -0.232132122421E+04   -0.19258E-02   -0.36908E-03  4531   0.358E-02    0.444E-01
RMM:  10    -0.232132214585E+04   -0.92165E-03   -0.96056E-04  4930   0.149E-02    0.544E-01
RMM:  11    -0.232132417694E+04   -0.20311E-02   -0.10097E-03  4338   0.150E-02    0.704E-01
RMM:  12    -0.232132169251E+04    0.24844E-02   -0.10831E-03  4107   0.151E-02    0.491E-01
RMM:  13    -0.232131958514E+04    0.21074E-02   -0.13337E-03  4263   0.167E-02    0.453E-01
RMM:  14    -0.232131578444E+04    0.38007E-02   -0.32211E-03  4824   0.261E-02    0.572E-01
RMM:  15    -0.232131336379E+04    0.24207E-02   -0.11811E-03  4369   0.170E-02    0.698E-01
RMM:  16    -0.232131469294E+04   -0.13292E-02   -0.11706E-04  3092   0.584E-03    0.629E-01
RMM:  17    -0.232131865985E+04   -0.39669E-02   -0.23233E-03  4424   0.212E-02    0.465E-01
RMM:  18    -0.232132213746E+04   -0.34776E-02   -0.29982E-03  4542   0.267E-02    0.528E-01
RMM:  19    -0.232132712233E+04   -0.49849E-02   -0.33562E-03  4878   0.262E-02    0.863E-01
RMM:  20    -0.232132621354E+04    0.90879E-03   -0.19920E-04  3247   0.104E-02    0.777E-01
RMM:  21    -0.232132355953E+04    0.26540E-02   -0.61828E-04  3871   0.113E-02    0.600E-01
RMM:  22    -0.232132238289E+04    0.11766E-02   -0.29409E-04  3378   0.947E-03    0.541E-01
RMM:  23    -0.232132215865E+04    0.22424E-03   -0.73428E-05  2930   0.487E-03    0.534E-01
RMM:  24    -0.232132052747E+04    0.16312E-02   -0.53668E-04  4177   0.103E-02    0.471E-01
RMM:  25    -0.232131847463E+04    0.20528E-02   -0.10054E-03  4244   0.149E-02    0.476E-01
RMM:  26    -0.232131612025E+04    0.23544E-02   -0.12712E-03  4415   0.161E-02    0.565E-01
RMM:  27    -0.232131499658E+04    0.11237E-02   -0.34913E-04  3605   0.959E-03    0.622E-01
RMM:  28    -0.232131573252E+04   -0.73594E-03   -0.48460E-05  2930   0.437E-03    0.585E-01
RMM:  29    -0.232131712347E+04   -0.13910E-02   -0.29155E-04  3397   0.759E-03    0.520E-01
RMM:  30    -0.232131968153E+04   -0.25581E-02   -0.13925E-03  4323   0.164E-02    0.465E-01
RMM:  31    -0.232132381099E+04   -0.41295E-02   -0.32136E-03  4576   0.259E-02    0.638E-01
RMM:  32    -0.232132877050E+04   -0.49595E-02   -0.26056E-03  4724   0.238E-02    0.981E-01
RMM:  33    -0.232133522752E+04   -0.64570E-02   -0.21072E-03  4638   0.203E-02    0.138E+00
RMM:  34    -0.232133693454E+04   -0.17070E-02   -0.36326E-04  3459   0.111E-02    0.146E+00
RMM:  35    -0.232133911447E+04   -0.21799E-02   -0.21116E-04  3464   0.660E-03    0.157E+00
RMM:  36    -0.232133879783E+04    0.31664E-03   -0.13400E-05  2893   0.435E-03    0.155E+00
RMM:  37    -0.232133516644E+04    0.36314E-02   -0.25045E-04  3318   0.699E-03    0.137E+00
RMM:  38    -0.232132990135E+04    0.52651E-02   -0.96234E-04  4187   0.135E-02    0.105E+00
RMM:  39    -0.232132739696E+04    0.25044E-02   -0.51617E-04  3684   0.113E-02    0.893E-01
RMM:  40    -0.232132742652E+04   -0.29566E-04   -0.59918E-05  2891   0.483E-03    0.899E-01
RMM:  41    -0.232132809368E+04   -0.66716E-03   -0.20646E-05  2750   0.310E-03    0.943E-01
RMM:  42    -0.232132802264E+04    0.71040E-04   -0.20577E-06  2214   0.143E-03    0.935E-01
RMM:  43    -0.232132790150E+04    0.12115E-03   -0.14538E-06  1695   0.888E-04    0.928E-01
RMM:  44    -0.232132758346E+04    0.31803E-03   -0.62670E-06  2121   0.139E-03    0.906E-01
RMM:  45    -0.232132741862E+04    0.16484E-03   -0.37407E-06  2031   0.128E-03    0.896E-01
RMM:  46    -0.232132738192E+04    0.36699E-04   -0.81623E-07  1498   0.929E-04    0.893E-01
RMM:  47    -0.232132741621E+04   -0.34289E-04   -0.17601E-07   990   0.665E-04    0.895E-01
RMM:  48    -0.232132785904E+04   -0.44282E-03   -0.98774E-06  1992   0.151E-03    0.927E-01
RMM:  49    -0.232132781346E+04    0.45577E-04   -0.76556E-07  1439   0.101E-03    0.921E-01
RMM:  50    -0.232132747555E+04    0.33791E-03   -0.55863E-06  1664   0.114E-03    0.898E-01
RMM:  51    -0.232132556207E+04    0.19135E-02   -0.24046E-04  3362   0.665E-03    0.760E-01
RMM:  52    -0.232132391230E+04    0.16498E-02   -0.31766E-04  3581   0.806E-03    0.653E-01
RMM:  53    -0.232132314128E+04    0.77102E-03   -0.14313E-04  3155   0.573E-03    0.606E-01
RMM:  54    -0.232132218899E+04    0.95229E-03   -0.17002E-04  3360   0.596E-03    0.551E-01
RMM:  55    -0.232132161223E+04    0.57676E-03   -0.86337E-05  3060   0.518E-03    0.526E-01
RMM:  56    -0.232132103102E+04    0.58121E-03   -0.95068E-05  3151   0.492E-03    0.504E-01
RMM:  57    -0.232132092725E+04    0.10378E-03   -0.13970E-05  2805   0.330E-03    0.502E-01
RMM:  58    -0.232132092878E+04   -0.15360E-05   -0.29197E-06  2355   0.151E-03
   2 F= -.23427622E+04 E0= -.23427549E+04  d E =-.146268E-01  mag=     3.9490
       N       E                     dE             d eps       ncg     rms          rms(c)
DAV:   1    -0.232133509272E+04   -0.14165E-01   -0.86351E+00  4560   0.155E+00    0.820E-01
RMM:   2    -0.232133783036E+04   -0.27376E-02   -0.51595E-02  4634   0.137E-01    0.838E-01
RMM:   3    -0.232134110520E+04   -0.32748E-02   -0.13042E-02  5413   0.705E-02    0.162E+00
RMM:   4    -0.232134099634E+04    0.10886E-03   -0.20798E-03  4796   0.190E-02    0.154E+00
RMM:   5    -0.232133676185E+04    0.42345E-02   -0.11031E-02  5835   0.391E-02    0.110E+00
RMM:   6    -0.232132736270E+04    0.93992E-02   -0.87047E-03  5879   0.439E-02    0.478E-01
RMM:   7    -0.232132618198E+04    0.11807E-02   -0.37847E-03  5099   0.277E-02    0.479E-01
RMM:   8    -0.232132479437E+04    0.13876E-02   -0.10351E-03  4388   0.160E-02    0.441E-01
RMM:   9    -0.232132357433E+04    0.12200E-02   -0.55136E-04  3977   0.108E-02    0.488E-01
RMM:  10    -0.232132507277E+04   -0.14984E-02   -0.37535E-04  3819   0.937E-03    0.438E-01
RMM:  11    -0.232132621739E+04   -0.11446E-02   -0.44644E-04  3917   0.101E-02    0.405E-01
RMM:  12    -0.232132850263E+04   -0.22852E-02   -0.14902E-03  4448   0.177E-02    0.479E-01
RMM:  13    -0.232132826380E+04    0.23883E-03   -0.79676E-05  3021   0.761E-03    0.457E-01
RMM:  14    -0.232132624106E+04    0.20227E-02   -0.10804E-03  4279   0.149E-02    0.420E-01
RMM:  15    -0.232132248589E+04    0.37552E-02   -0.35168E-03  4725   0.276E-02    0.580E-01
RMM:  16    -0.232131467384E+04    0.78121E-02   -0.58344E-03  4934   0.352E-02    0.101E+00
RMM:  17    -0.232132164092E+04   -0.69671E-02   -0.25355E-03  4599   0.217E-02    0.634E-01
RMM:  18    -0.232132558106E+04   -0.39401E-02   -0.34147E-03  4672   0.269E-02    0.432E-01
RMM:  19    -0.232132774615E+04   -0.21651E-02   -0.20293E-03  4604   0.212E-02    0.441E-01
RMM:  20    -0.232133046325E+04   -0.27171E-02   -0.17474E-03  4696   0.190E-02    0.611E-01
RMM:  21    -0.232133049091E+04   -0.27655E-04   -0.14932E-04  3123   0.828E-03    0.605E-01
RMM:  22    -0.232133082348E+04   -0.33257E-03   -0.55285E-05  3007   0.369E-03    0.637E-01
RMM:  23    -0.232133040547E+04    0.41801E-03   -0.16425E-05  2827   0.318E-03    0.600E-01
RMM:  24    -0.232132862847E+04    0.17770E-02   -0.47705E-04  3771   0.958E-03    0.474E-01
RMM:  25    -0.232132684872E+04    0.17797E-02   -0.88067E-04  4150   0.140E-02    0.413E-01
RMM:  26    -0.232132591315E+04    0.93557E-03   -0.43127E-04  3782   0.988E-03    0.420E-01
RMM:  27    -0.232132510003E+04    0.81312E-03   -0.27421E-04  3623   0.795E-03    0.443E-01
RMM:  28    -0.232132422469E+04    0.87534E-03   -0.24426E-04  3580   0.812E-03    0.482E-01
RMM:  29    -0.232132379702E+04    0.42767E-03   -0.86589E-05  3067   0.556E-03    0.505E-01
RMM:  30    -0.232132431381E+04   -0.51679E-03   -0.41684E-05  2828   0.416E-03    0.479E-01
RMM:  31    -0.232132615882E+04   -0.18450E-02   -0.88395E-04  4103   0.130E-02    0.419E-01
RMM:  32    -0.232132878771E+04   -0.26289E-02   -0.19272E-03  4472   0.205E-02    0.489E-01
RMM:  33    -0.232133058564E+04   -0.17979E-02   -0.88258E-04  4280   0.146E-02    0.608E-01
RMM:  34    -0.232133048055E+04    0.10509E-03   -0.85212E-05  2994   0.525E-03    0.597E-01
RMM:  35    -0.232133052856E+04   -0.48016E-04   -0.15251E-05  2744   0.262E-03    0.604E-01
RMM:  36    -0.232132975645E+04    0.77211E-03   -0.69368E-05  2864   0.380E-03    0.546E-01
RMM:  37    -0.232132838990E+04    0.13665E-02   -0.36544E-04  3744   0.843E-03    0.463E-01
RMM:  38    -0.232132721113E+04    0.11788E-02   -0.43442E-04  3862   0.102E-02    0.427E-01
RMM:  39    -0.232132678135E+04    0.42979E-03   -0.13465E-04  3200   0.624E-03    0.428E-01
RMM:  40    -0.232132663346E+04    0.14788E-03   -0.33294E-05  2907   0.370E-03    0.428E-01
RMM:  41    -0.232132658174E+04    0.51720E-04   -0.55880E-06  2615   0.232E-03    0.428E-01
RMM:  42    -0.232132655849E+04    0.23252E-04   -0.19348E-06  2501   0.168E-03    0.430E-01
RMM:  43    -0.232132650664E+04    0.51854E-04   -0.27128E-06  2480   0.141E-03    0.432E-01
RMM:  44    -0.232132654756E+04   -0.40927E-04   -0.84867E-07  2224   0.116E-03    0.435E-01
RMM:  45    -0.232132678790E+04   -0.24034E-03   -0.13609E-05  2439   0.173E-03    0.440E-01
RMM:  46    -0.232132712893E+04   -0.34103E-03   -0.32105E-05  2758   0.261E-03    0.448E-01
RMM:  47    -0.232132701550E+04    0.11343E-03   -0.26286E-06  2263   0.146E-03    0.444E-01
RMM:  48    -0.232132700099E+04    0.14513E-04   -0.27634E-07  1266   0.658E-04    0.443E-01
RMM:  49    -0.232132703621E+04   -0.35222E-04   -0.67940E-07  1121   0.671E-04    0.442E-01
RMM:  50    -0.232132702844E+04    0.77762E-05   -0.10384E-07   946   0.581E-04
   3 F= -.23427679E+04 E0= -.23427614E+04  d E =-.131649E-01  mag=     3.9588
       N       E                     dE             d eps       ncg     rms          rms(c)
DAV:   1    -0.232132469222E+04    0.23440E-02   -0.43866E+00  4560   0.115E+00    0.894E-01
RMM:   2    -0.232133125820E+04   -0.65660E-02   -0.40200E-02  4797   0.116E-01    0.109E+00
RMM:   3    -0.232133218692E+04   -0.92873E-03   -0.44654E-03  4571   0.485E-02    0.144E+00
RMM:   4    -0.232132919553E+04    0.29914E-02   -0.21634E-02  5506   0.646E-02    0.134E+00
RMM:   5    -0.232132259189E+04    0.66036E-02   -0.11433E-02  5792   0.425E-02    0.972E-01
RMM:   6    -0.232131219769E+04    0.10394E-01   -0.10563E-02  5389   0.466E-02    0.667E-01
RMM:   7    -0.232130753246E+04    0.46652E-02   -0.33852E-03  4708   0.316E-02    0.757E-01
RMM:   8    -0.232130479778E+04    0.27347E-02   -0.11842E-03  4742   0.156E-02    0.862E-01
RMM:   9    -0.232130972965E+04   -0.49319E-02   -0.98025E-04  4027   0.149E-02    0.700E-01
RMM:  10    -0.232131765454E+04   -0.79249E-02   -0.58681E-03  4614   0.351E-02    0.571E-01
RMM:  11    -0.232132715227E+04   -0.94977E-02   -0.89509E-03  4883   0.461E-02    0.107E+00
RMM:  12    -0.232132476649E+04    0.23858E-02   -0.57037E-04  4248   0.170E-02    0.884E-01
RMM:  13    -0.232132423488E+04    0.53162E-03   -0.14161E-04  3148   0.586E-03    0.893E-01
RMM:  14    -0.232131862321E+04    0.56117E-02   -0.30573E-03  4664   0.241E-02    0.598E-01
RMM:  15    -0.232131486765E+04    0.37556E-02   -0.25497E-03  4503   0.254E-02    0.609E-01
RMM:  16    -0.232131289484E+04    0.19728E-02   -0.10154E-03  4620   0.146E-02    0.666E-01
RMM:  17    -0.232131163914E+04    0.12557E-02   -0.27397E-04  3596   0.844E-03    0.711E-01
RMM:  18    -0.232131298562E+04   -0.13465E-02   -0.13989E-04  3096   0.615E-03    0.662E-01
RMM:  19    -0.232131630720E+04   -0.33216E-02   -0.14104E-03  4291   0.165E-02    0.592E-01
RMM:  20    -0.232132155861E+04   -0.52514E-02   -0.35809E-03  4632   0.279E-02    0.746E-01
RMM:  21    -0.232132636481E+04   -0.48062E-02   -0.21855E-03  4633   0.223E-02    0.103E+00
RMM:  22    -0.232132580848E+04    0.55633E-03   -0.16894E-04  3108   0.797E-03    0.981E-01
RMM:  23    -0.232132187257E+04    0.39359E-02   -0.84148E-04  3972   0.132E-02    0.741E-01
RMM:  24    -0.232131820277E+04    0.36698E-02   -0.16764E-03  4387   0.192E-02    0.593E-01
RMM:  25    -0.232131435753E+04    0.38452E-02   -0.25266E-03  4655   0.228E-02    0.604E-01
RMM:  26    -0.232131272701E+04    0.16305E-02   -0.66391E-04  4074   0.132E-02    0.659E-01
RMM:  27    -0.232131225046E+04    0.47655E-03   -0.15174E-04  3247   0.582E-03    0.677E-01
RMM:  28    -0.232131132484E+04    0.92562E-03   -0.98599E-05  3126   0.541E-03    0.713E-01
RMM:  29    -0.232131210713E+04   -0.78230E-03   -0.47155E-05  2881   0.412E-03    0.682E-01
RMM:  30    -0.232131604914E+04   -0.39420E-02   -0.18123E-03  4355   0.186E-02    0.579E-01
RMM:  31    -0.232132185068E+04   -0.58015E-02   -0.43126E-03  4742   0.309E-02    0.758E-01
RMM:  32    -0.232132743455E+04   -0.55839E-02   -0.26573E-03  4733   0.241E-02    0.110E+00
RMM:  33    -0.232133618474E+04   -0.87502E-02   -0.25820E-03  4762   0.226E-02    0.158E+00
RMM:  34    -0.232134468453E+04   -0.84998E-02   -0.15909E-03  4412   0.200E-02    0.192E+00
RMM:  35    -0.232134249075E+04    0.21938E-02   -0.15254E-04  3043   0.841E-03    0.183E+00
RMM:  36    -0.232134334460E+04   -0.85385E-03   -0.44365E-05  2938   0.382E-03    0.188E+00
RMM:  37    -0.232134134804E+04    0.19966E-02   -0.44030E-05  2866   0.377E-03    0.180E+00
RMM:  38    -0.232133872268E+04    0.26254E-02   -0.11626E-04  3099   0.501E-03    0.169E+00
RMM:  39    -0.232133929944E+04   -0.57676E-03   -0.11106E-05  2453   0.286E-03    0.172E+00
RMM:  40    -0.232133938395E+04   -0.84506E-04   -0.11460E-06  1773   0.893E-04    0.172E+00
RMM:  41    -0.232133933764E+04    0.46303E-04   -0.24902E-07  1378   0.633E-04    0.172E+00
RMM:  42    -0.232133770569E+04    0.16320E-02   -0.36799E-05  2689   0.269E-03    0.165E+00
RMM:  43    -0.232133395161E+04    0.37541E-02   -0.26342E-04  3541   0.686E-03    0.146E+00
RMM:  44    -0.232132815921E+04    0.57924E-02   -0.94173E-04  4305   0.135E-02    0.113E+00
RMM:  45    -0.232132355242E+04    0.46068E-02   -0.12377E-03  4386   0.167E-02    0.855E-01
RMM:  46    -0.232132049534E+04    0.30571E-02   -0.10949E-03  4446   0.152E-02    0.685E-01
RMM:  47    -0.232131870793E+04    0.17874E-02   -0.57484E-04  3976   0.116E-02    0.611E-01
RMM:  48    -0.232131858007E+04    0.12785E-03   -0.71714E-05  2995   0.543E-03    0.605E-01
RMM:  49    -0.232131946512E+04   -0.88505E-03   -0.81678E-05  2918   0.478E-03    0.630E-01
RMM:  50    -0.232131999754E+04   -0.53242E-03   -0.59827E-05  2937   0.393E-03    0.643E-01
RMM:  51    -0.232131944642E+04    0.55112E-03   -0.20262E-05  2640   0.270E-03    0.614E-01
RMM:  52    -0.232131982988E+04   -0.38346E-03   -0.12206E-05  2403   0.195E-03    0.631E-01
RMM:  53    -0.232131978517E+04    0.44706E-04   -0.75120E-07  2169   0.116E-03    0.628E-01
RMM:  54    -0.232131967626E+04    0.10892E-03   -0.13626E-06  1489   0.724E-04    0.625E-01
RMM:  55    -0.232131850394E+04    0.11723E-02   -0.18235E-04  3268   0.595E-03    0.590E-01
RMM:  56    -0.232131698014E+04    0.15238E-02   -0.40856E-04  3896   0.904E-03    0.574E-01
RMM:  57    -0.232131502740E+04    0.19527E-02   -0.67026E-04  4002   0.114E-02    0.594E-01
RMM:  58    -0.232131387529E+04    0.11521E-02   -0.28522E-04  3419   0.863E-03    0.626E-01
RMM:  59    -0.232131299451E+04    0.88078E-03   -0.16875E-04  3339   0.648E-03    0.654E-01
RMM:  60    -0.232131329434E+04   -0.29983E-03   -0.11441E-05  2848   0.358E-03    0.645E-01
RMM:  61    -0.232131304554E+04    0.24880E-03   -0.79186E-06  2592   0.171E-03    0.653E-01
RMM:  62    -0.232131364548E+04   -0.59994E-03   -0.33456E-05  2589   0.309E-03    0.635E-01
RMM:  63    -0.232131508706E+04   -0.14416E-02   -0.27092E-04  3521   0.732E-03    0.597E-01
RMM:  64    -0.232131665348E+04   -0.15664E-02   -0.40622E-04  3752   0.934E-03    0.582E-01
RMM:  65    -0.232131837368E+04   -0.17202E-02   -0.50155E-04  3928   0.102E-02    0.605E-01
RMM:  66    -0.232132109750E+04   -0.27238E-02   -0.93421E-04  4398   0.137E-02    0.717E-01
RMM:  67    -0.232132588465E+04   -0.47871E-02   -0.17256E-03  4492   0.190E-02    0.100E+00
RMM:  68    -0.232132553664E+04    0.34800E-03   -0.13477E-04  3056   0.857E-03    0.963E-01
RMM:  69    -0.232132360421E+04    0.19324E-02   -0.16690E-04  3126   0.641E-03    0.849E-01
RMM:  70    -0.232132100318E+04    0.26010E-02   -0.57620E-04  3940   0.106E-02    0.702E-01
RMM:  71    -0.232132092930E+04    0.73875E-04   -0.48623E-05  2897   0.500E-03    0.709E-01
RMM:  72    -0.232131724464E+04    0.36847E-02   -0.15630E-03  4387   0.167E-02    0.566E-01
RMM:  73    -0.232131729392E+04   -0.49282E-04   -0.11317E-04  3024   0.837E-03    0.586E-01
RMM:  74    -0.232131964065E+04   -0.23467E-02   -0.54753E-04  3873   0.106E-02    0.648E-01
RMM:  75    -0.232131932726E+04    0.31339E-03   -0.27610E-05  2704   0.452E-03    0.623E-01
RMM:  76    -0.232131691398E+04    0.24133E-02   -0.70106E-04  4028   0.116E-02    0.567E-01
RMM:  77    -0.232131701385E+04   -0.99870E-04   -0.55033E-05  2907   0.544E-03    0.578E-01
RMM:  78    -0.232131548078E+04    0.15331E-02   -0.37447E-04  3699   0.820E-03    0.579E-01
RMM:  79    -0.232131432712E+04    0.11537E-02   -0.21469E-04  3317   0.762E-03    0.604E-01
RMM:  80    -0.232131400885E+04    0.31827E-03   -0.49213E-05  2972   0.431E-03    0.613E-01
RMM:  81    -0.232131442836E+04   -0.41950E-03   -0.16636E-05  2665   0.287E-03    0.602E-01
RMM:  82    -0.232133162647E+04   -0.17198E-01   -0.19521E-02  4943   0.599E-02    0.134E+00
RMM:  83    -0.232132776955E+04    0.38569E-02   -0.11399E-03  3804   0.267E-02    0.108E+00
RMM:  84    -0.232131527587E+04    0.12494E-01   -0.13550E-02  4820   0.502E-02    0.592E-01
RMM:  85    -0.232132229347E+04   -0.70176E-02   -0.44621E-03  5119   0.315E-02    0.799E-01
RMM:  86    -0.232132519203E+04   -0.28986E-02   -0.13014E-03  4325   0.164E-02    0.958E-01
RMM:  87    -0.232132815559E+04   -0.29636E-02   -0.56096E-04  4057   0.117E-02    0.115E+00
RMM:  88    -0.232133085118E+04   -0.26956E-02   -0.38133E-04  3675   0.930E-03    0.131E+00
RMM:  89    -0.232133160583E+04   -0.75465E-03   -0.55532E-05  2993   0.538E-03    0.135E+00
RMM:  90    -0.232133164993E+04   -0.44100E-04   -0.10993E-05  2895   0.272E-03    0.136E+00
RMM:  91    -0.232132903680E+04    0.26131E-02   -0.17926E-04  3121   0.587E-03    0.121E+00
RMM:  92    -0.232132546754E+04    0.35693E-02   -0.54460E-04  4007   0.103E-02    0.988E-01
RMM:  93    -0.232132897611E+04   -0.35086E-02   -0.39573E-04  3842   0.100E-02    0.121E+00
RMM:  94    -0.232133119364E+04   -0.22175E-02   -0.23939E-04  3312   0.737E-03    0.133E+00
RMM:  95    -0.232133086077E+04    0.33287E-03   -0.16645E-05  2688   0.383E-03    0.131E+00
RMM:  96    -0.232132450126E+04    0.63595E-02   -0.14207E-03  4262   0.162E-02    0.912E-01
RMM:  97    -0.232132029073E+04    0.42105E-02   -0.16099E-03  4282   0.194E-02    0.680E-01
RMM:  98    -0.232131887349E+04    0.14172E-02   -0.56165E-04  3878   0.113E-02    0.622E-01
RMM:  99    -0.232131739501E+04    0.14785E-02   -0.39747E-04  3902   0.931E-03    0.581E-01
RMM: 100    -0.232131541453E+04    0.19805E-02   -0.63716E-04  4095   0.121E-02    0.581E-01
RMM: 101    -0.232131469763E+04    0.71690E-03   -0.14905E-04  3245   0.720E-03    0.595E-01
RMM: 102    -0.232131096808E+04    0.37295E-02   -0.15877E-03  4494   0.174E-02    0.725E-01
RMM: 103    -0.232130997311E+04    0.99497E-03   -0.23111E-04  3359   0.980E-03    0.769E-01
RMM: 104    -0.232130999704E+04   -0.23929E-04   -0.39094E-05  2965   0.338E-03    0.766E-01
RMM: 105    -0.232131000018E+04   -0.31335E-05   -0.24316E-06  2701   0.200E-03
   4 F= -.23427510E+04 E0= -.23427491E+04  d E =-.366039E-02  mag=     4.2770
       N       E                     dE             d eps       ncg     rms          rms(c)
DAV:   1    -0.232133758444E+04   -0.27587E-01   -0.87214E+00  4560   0.155E+00    0.905E-01
RMM:   2    -0.232133471760E+04    0.28668E-02   -0.56033E-02  4615   0.135E-01    0.595E-01
RMM:   3    -0.232133951174E+04   -0.47941E-02   -0.21324E-02  5637   0.824E-02    0.103E+00
RMM:   4    -0.232133114306E+04    0.83687E-02   -0.11465E-02  5996   0.464E-02    0.439E-01
RMM:   5    -0.232133196326E+04   -0.82020E-03   -0.32976E-03  4918   0.272E-02    0.708E-01
RMM:   6    -0.232133275535E+04   -0.79208E-03   -0.70256E-04  4022   0.122E-02    0.723E-01
RMM:   7    -0.232133094055E+04    0.18148E-02   -0.66722E-03  4608   0.360E-02    0.377E-01
RMM:   8    -0.232133015160E+04    0.78895E-03   -0.31736E-03  4848   0.285E-02    0.476E-01
RMM:   9    -0.232132680727E+04    0.33443E-02   -0.38899E-03  5184   0.289E-02    0.741E-01
RMM:  10    -0.232132845452E+04   -0.16472E-02   -0.30710E-04  3698   0.115E-02    0.616E-01
RMM:  11    -0.232133004742E+04   -0.15929E-02   -0.91593E-04  4239   0.150E-02    0.432E-01
RMM:  12    -0.232133140984E+04   -0.13624E-02   -0.12703E-03  4247   0.177E-02    0.308E-01
RMM:  13    -0.232133259702E+04   -0.11872E-02   -0.13026E-03  4540   0.174E-02    0.279E-01
RMM:  14    -0.232133391536E+04   -0.13183E-02   -0.96746E-04  4229   0.151E-02    0.340E-01
RMM:  15    -0.232133403562E+04   -0.12026E-03   -0.12076E-04  3080   0.651E-03    0.347E-01
RMM:  16    -0.232133475681E+04   -0.72119E-03   -0.19923E-04  3688   0.676E-03    0.399E-01
RMM:  17    -0.232133478141E+04   -0.24599E-04   -0.15983E-05  2896   0.386E-03    0.398E-01
RMM:  18    -0.232133378703E+04    0.99438E-03   -0.36090E-04  3476   0.831E-03    0.302E-01
RMM:  19    -0.232133161641E+04    0.21706E-02   -0.35943E-03  4412   0.260E-02    0.317E-01
RMM:  20    -0.232132604176E+04    0.55746E-02   -0.60157E-03  4616   0.360E-02    0.704E-01
RMM:  21    -0.232132702843E+04   -0.98667E-03   -0.28107E-04  3563   0.107E-02    0.641E-01
RMM:  22    -0.232132860006E+04   -0.15716E-02   -0.21893E-04  3209   0.716E-03    0.538E-01
RMM:  23    -0.232133191919E+04   -0.33191E-02   -0.20513E-03  4260   0.195E-02    0.320E-01
RMM:  24    -0.232133429082E+04   -0.23716E-02   -0.26994E-03  4354   0.240E-02    0.269E-01
RMM:  25    -0.232133542876E+04   -0.11379E-02   -0.97086E-04  4283   0.147E-02    0.330E-01
RMM:  26    -0.232133722198E+04   -0.17932E-02   -0.97190E-04  4363   0.137E-02    0.490E-01
RMM:  27    -0.232133787813E+04   -0.65615E-03   -0.19329E-04  3193   0.817E-03    0.549E-01
RMM:  28    -0.232133756005E+04    0.31807E-03   -0.23145E-05  2897   0.360E-03    0.520E-01
RMM:  29    -0.232133758588E+04   -0.25829E-04   -0.35145E-06  2573   0.177E-03    0.527E-01
RMM:  30    -0.232133652236E+04    0.10635E-02   -0.18879E-04  3161   0.624E-03    0.427E-01
RMM:  31    -0.232133525566E+04    0.12667E-02   -0.51716E-04  3953   0.997E-03    0.328E-01
RMM:  32    -0.232133400703E+04    0.12486E-02   -0.81117E-04  3953   0.126E-02    0.278E-01
RMM:  33    -0.232133323246E+04    0.77457E-03   -0.46630E-04  3678   0.104E-02    0.287E-01
RMM:  34    -0.232133272360E+04    0.50886E-03   -0.24102E-04  3350   0.723E-03    0.307E-01
RMM:  35    -0.232133202007E+04    0.70353E-03   -0.21501E-04  3494   0.741E-03    0.347E-01
RMM:  36    -0.232133159087E+04    0.42920E-03   -0.94178E-05  3050   0.574E-03    0.375E-01
RMM:  37    -0.232133165313E+04   -0.62254E-04   -0.10648E-05  2791   0.297E-03    0.371E-01
RMM:  38    -0.232133165419E+04   -0.10634E-05   -0.15624E-06  2426   0.134E-03
   5 F= -.23427729E+04 E0= -.23427703E+04  d E =-.521963E-02  mag=     4.0858
       N       E                     dE             d eps       ncg     rms          rms(c)
DAV:   1    -0.232130878324E+04    0.22870E-01   -0.43249E+00  4480   0.113E+00    0.694E-01
RMM:   2    -0.232131242746E+04   -0.36442E-02   -0.33950E-02  4792   0.104E-01    0.673E-01
RMM:   3    -0.232131439852E+04   -0.19711E-02   -0.10783E-02  5532   0.578E-02    0.115E+00
RMM:   4    -0.232131449460E+04   -0.96080E-04   -0.13285E-03  4111   0.124E-02    0.117E+00
RMM:   5    -0.232131340139E+04    0.10932E-02   -0.65758E-04  4357   0.131E-02    0.112E+00
RMM:   6    -0.232131414511E+04   -0.74372E-03   -0.20385E-03  5197   0.207E-02    0.108E+00
RMM:   7    -0.232131127800E+04    0.28671E-02   -0.14301E-02  5689   0.591E-02    0.928E-01
RMM:   8    -0.232131382503E+04   -0.25470E-02   -0.10366E-02  5432   0.449E-02    0.119E+00
RMM:   9    -0.232131057214E+04    0.32529E-02   -0.23701E-03  4990   0.273E-02    0.109E+00
RMM:  10    -0.232130957006E+04    0.10021E-02   -0.73095E-04  4172   0.131E-02    0.109E+00
RMM:  11    -0.232130877225E+04    0.79782E-03   -0.18792E-04  3763   0.955E-03    0.110E+00
RMM:  12    -0.232130861573E+04    0.15652E-03   -0.77292E-05  3241   0.624E-03    0.111E+00
RMM:  13    -0.232130827956E+04    0.33617E-03   -0.12190E-04  3383   0.673E-03    0.114E+00
RMM:  14    -0.232130822812E+04    0.51442E-04   -0.21317E-05  2982   0.435E-03    0.114E+00
RMM:  15    -0.232130834516E+04   -0.11704E-03   -0.54048E-06  2696   0.221E-03    0.114E+00
RMM:  16    -0.232130852735E+04   -0.18219E-03   -0.20842E-04  3498   0.684E-03    0.108E+00
RMM:  17    -0.232130899019E+04   -0.46284E-03   -0.38926E-04  3930   0.919E-03    0.103E+00
RMM:  18    -0.232130890914E+04    0.81050E-04   -0.28195E-05  2826   0.354E-03    0.103E+00
RMM:  19    -0.232130890649E+04    0.26512E-05   -0.33472E-06  2356   0.138E-03
   6 F= -.23427499E+04 E0= -.23427439E+04  d E =-.120154E-01  mag=     3.9458
       N       E                     dE             d eps       ncg     rms          rms(c)
DAV:   1    -0.232135253307E+04   -0.43624E-01   -0.85815E+00  4480   0.169E+00    0.129E+00
RMM:   2    -0.232141562732E+04   -0.63094E-01   -0.16325E-01  5893   0.209E-01    0.258E+00
RMM:   3    -0.232135134929E+04    0.64278E-01   -0.51872E-02  6280   0.113E-01    0.119E+00
RMM:   4    -0.232135222873E+04   -0.87944E-03   -0.12344E-02  5110   0.492E-02    0.154E+00
RMM:   5    -0.232135191092E+04    0.31781E-03   -0.53071E-03  5141   0.377E-02    0.136E+00
RMM:   6    -0.232133985108E+04    0.12060E-01   -0.10972E-02  5818   0.482E-02    0.423E-01
RMM:   7    -0.232133814060E+04    0.17105E-02   -0.45955E-03  4867   0.306E-02    0.413E-01
RMM:   8    -0.232133634022E+04    0.18004E-02   -0.16623E-03  4341   0.231E-02    0.455E-01
RMM:   9    -0.232133543400E+04    0.90621E-03   -0.37746E-04  3838   0.106E-02    0.490E-01
RMM:  10    -0.232133527552E+04    0.15848E-03   -0.51697E-05  3079   0.564E-03    0.497E-01
RMM:  11    -0.232133948731E+04   -0.42118E-02   -0.32470E-03  4449   0.248E-02    0.460E-01
RMM:  12    -0.232134354358E+04   -0.40563E-02   -0.39135E-03  4459   0.313E-02    0.739E-01
RMM:  13    -0.232134165510E+04    0.18885E-02   -0.44553E-04  3754   0.125E-02    0.552E-01
RMM:  14    -0.232133930147E+04    0.23536E-02   -0.13995E-03  4187   0.164E-02    0.451E-01
RMM:  15    -0.232133696613E+04    0.23353E-02   -0.15392E-03  4229   0.193E-02    0.468E-01
RMM:  16    -0.232133457505E+04    0.23911E-02   -0.14173E-03  4564   0.176E-02    0.584E-01
RMM:  17    -0.232133626640E+04   -0.16913E-02   -0.32973E-04  3678   0.890E-03    0.499E-01
RMM:  18    -0.232133732167E+04   -0.10553E-02   -0.30905E-04  3498   0.863E-03    0.449E-01
RMM:  19    -0.232134027575E+04   -0.29541E-02   -0.23045E-03  4580   0.212E-02    0.454E-01
RMM:  20    -0.232134559434E+04   -0.53186E-02   -0.41514E-03  4700   0.300E-02    0.817E-01
RMM:  21    -0.232134493567E+04    0.65867E-03   -0.26822E-04  3351   0.113E-02    0.745E-01
RMM:  22    -0.232134193694E+04    0.29987E-02   -0.81963E-04  3981   0.132E-02    0.529E-01
RMM:  23    -0.232133988113E+04    0.20558E-02   -0.10199E-03  4132   0.156E-02    0.432E-01
RMM:  24    -0.232133756071E+04    0.23204E-02   -0.18217E-03  4654   0.193E-02    0.435E-01
RMM:  25    -0.232133629331E+04    0.12674E-02   -0.64211E-04  4049   0.129E-02    0.486E-01
RMM:  26    -0.232133521756E+04    0.10757E-02   -0.38318E-04  3808   0.917E-03    0.540E-01
RMM:  27    -0.232133482489E+04    0.39267E-03   -0.59238E-05  3030   0.528E-03    0.561E-01
RMM:  28    -0.232133529290E+04   -0.46801E-03   -0.24705E-05  2824   0.346E-03    0.536E-01
RMM:  29    -0.232133593930E+04   -0.64639E-03   -0.76939E-05  2934   0.404E-03    0.502E-01
RMM:  30    -0.232133696014E+04   -0.10208E-02   -0.23036E-04  3346   0.658E-03    0.457E-01
RMM:  31    -0.232133919876E+04   -0.22386E-02   -0.13083E-03  4399   0.157E-02    0.426E-01
RMM:  32    -0.232134152187E+04   -0.23231E-02   -0.14466E-03  4302   0.180E-02    0.525E-01
RMM:  33    -0.232134203189E+04   -0.51001E-03   -0.23231E-04  3316   0.795E-03    0.553E-01
RMM:  34    -0.232134221071E+04   -0.17883E-03   -0.50809E-05  2967   0.384E-03    0.568E-01
RMM:  35    -0.232134219639E+04    0.14320E-04   -0.34343E-06  2565   0.226E-03    0.567E-01
RMM:  36    -0.232134219643E+04   -0.38475E-07   -0.10982E-06  2349   0.135E-03
   7 F= -.23427833E+04 E0= -.23427735E+04  d E =-.197252E-01  mag=     3.8343
       N       E                     dE             d eps       ncg     rms          rms(c)
DAV:   1    -0.232132954183E+04    0.12655E-01   -0.22429E+00  4480   0.884E-01    0.627E-01
RMM:   2    -0.232133607660E+04   -0.65348E-02   -0.20887E-02  4758   0.844E-02    0.976E-01
RMM:   3    -0.232133609895E+04   -0.22346E-04   -0.24890E-03  4213   0.359E-02    0.791E-01
RMM:   4    -0.232133013454E+04    0.59644E-02   -0.13043E-02  5808   0.499E-02    0.773E-01
RMM:   5    -0.232132896021E+04    0.11743E-02   -0.58973E-03  5482   0.292E-02    0.715E-01
RMM:   6    -0.232132433093E+04    0.46293E-02   -0.35260E-03  5091   0.277E-02    0.442E-01
RMM:   7    -0.232132186099E+04    0.24699E-02   -0.18934E-03  4395   0.215E-02    0.491E-01
RMM:   8    -0.232132088199E+04    0.97900E-03   -0.33241E-04  3914   0.101E-02    0.517E-01
RMM:   9    -0.232132312294E+04   -0.22409E-02   -0.56413E-04  3833   0.113E-02    0.448E-01
RMM:  10    -0.232132674392E+04   -0.36210E-02   -0.28331E-03  4454   0.246E-02    0.453E-01
RMM:  11    -0.232133117849E+04   -0.44346E-02   -0.33475E-03  4592   0.281E-02    0.751E-01
RMM:  12    -0.232132686666E+04    0.43118E-02   -0.19765E-03  4349   0.203E-02    0.422E-01
RMM:  13    -0.232132553190E+04    0.13348E-02   -0.70032E-04  3924   0.132E-02    0.413E-01
RMM:  14    -0.232132373054E+04    0.18014E-02   -0.10243E-03  4477   0.151E-02    0.420E-01
RMM:  15    -0.232132229498E+04    0.14356E-02   -0.61536E-04  3909   0.126E-02    0.478E-01
RMM:  16    -0.232132404452E+04   -0.17495E-02   -0.47443E-04  3670   0.985E-03    0.416E-01
RMM:  17    -0.232132772223E+04   -0.36777E-02   -0.31851E-03  4559   0.250E-02    0.500E-01
RMM:  18    -0.232133191051E+04   -0.41883E-02   -0.26208E-03  4426   0.247E-02    0.811E-01
RMM:  19    -0.232132636252E+04    0.55480E-02   -0.35226E-03  4531   0.257E-02    0.399E-01
RMM:  20    -0.232132409457E+04    0.22680E-02   -0.17355E-03  4262   0.201E-02    0.408E-01
RMM:  21    -0.232132299854E+04    0.10960E-02   -0.63095E-04  4193   0.123E-02    0.450E-01
RMM:  22    -0.232131947876E+04    0.35198E-02   -0.20770E-03  4648   0.204E-02    0.648E-01
RMM:  23    -0.232131819741E+04    0.12813E-02   -0.39927E-04  3696   0.117E-02    0.722E-01
RMM:  24    -0.232131868395E+04   -0.48653E-03   -0.41196E-05  2974   0.359E-03    0.693E-01
RMM:  25    -0.232131879731E+04   -0.11336E-03   -0.36682E-06  2684   0.181E-03    0.686E-01
RMM:  26    -0.232131891031E+04   -0.11300E-03   -0.20289E-06  2470   0.128E-03    0.679E-01
RMM:  27    -0.232131988986E+04   -0.97955E-03   -0.96861E-05  3000   0.445E-03    0.620E-01
RMM:  28    -0.232132206082E+04   -0.21710E-02   -0.69366E-04  4077   0.113E-02    0.491E-01
RMM:  29    -0.232132392143E+04   -0.18606E-02   -0.88826E-04  3931   0.143E-02    0.407E-01
RMM:  30    -0.232132555770E+04   -0.16363E-02   -0.94544E-04  4405   0.141E-02    0.391E-01
RMM:  31    -0.232132625430E+04   -0.69660E-03   -0.26845E-04  3455   0.842E-03    0.407E-01
RMM:  32    -0.232132630080E+04   -0.46502E-04   -0.35138E-05  2952   0.395E-03    0.408E-01
RMM:  33    -0.232132641748E+04   -0.11667E-03   -0.96514E-06  2701   0.244E-03    0.413E-01
RMM:  34    -0.232132599242E+04    0.42506E-03   -0.40619E-05  2695   0.329E-03    0.399E-01
RMM:  35    -0.232132480871E+04    0.11837E-02   -0.40562E-04  3751   0.877E-03    0.392E-01
RMM:  36    -0.232132325059E+04    0.15581E-02   -0.71892E-04  4018   0.124E-02    0.439E-01
RMM:  37    -0.232132267400E+04    0.57659E-03   -0.18301E-04  3219   0.690E-03    0.467E-01
RMM:  38    -0.232132290604E+04   -0.23204E-03   -0.15531E-05  2790   0.320E-03    0.455E-01
RMM:  39    -0.232132377120E+04   -0.86516E-03   -0.15924E-04  3131   0.552E-03    0.419E-01
RMM:  40    -0.232132520840E+04   -0.14372E-02   -0.60432E-04  3974   0.106E-02    0.394E-01
RMM:  41    -0.232132686303E+04   -0.16546E-02   -0.86548E-04  4028   0.137E-02    0.435E-01
RMM:  42    -0.232132762471E+04   -0.76168E-03   -0.27361E-04  3499   0.828E-03    0.472E-01
RMM:  43    -0.232132816763E+04   -0.54291E-03   -0.12777E-04  3152   0.559E-03    0.507E-01
RMM:  44    -0.232132771812E+04    0.44951E-03   -0.28890E-05  2817   0.391E-03    0.476E-01
RMM:  45    -0.232132732450E+04    0.39361E-03   -0.36396E-05  2730   0.298E-03    0.455E-01
RMM:  46    -0.232132634523E+04    0.97928E-03   -0.22877E-04  3333   0.661E-03    0.409E-01
RMM:  47    -0.232132548232E+04    0.86290E-03   -0.25100E-04  3416   0.727E-03    0.392E-01
RMM:  48    -0.232132512463E+04    0.35769E-03   -0.81184E-05  3018   0.468E-03    0.392E-01
RMM:  49    -0.232132482518E+04    0.29946E-03   -0.47995E-05  2947   0.387E-03    0.396E-01
RMM:  50    -0.232132484625E+04   -0.21071E-04   -0.46073E-06  2628   0.271E-03    0.398E-01
RMM:  51    -0.232132485542E+04   -0.91724E-05   -0.14175E-06  2319   0.122E-03
   8 F= -.23427656E+04 E0= -.23427604E+04  d E =-.104160E-01  mag=     4.0108
       N       E                     dE             d eps       ncg     rms          rms(c)
DAV:   1    -0.232134457976E+04   -0.19734E-01   -0.12887E+00  4840   0.545E-01    0.674E-01
RMM:   2    -0.232134629676E+04   -0.17170E-02   -0.22523E-02  4857   0.745E-02    0.651E-01
RMM:   3    -0.232135084656E+04   -0.45498E-02   -0.62783E-03  4963   0.505E-02    0.129E+00
RMM:   4    -0.232135240071E+04   -0.15542E-02   -0.28899E-03  5217   0.227E-02    0.134E+00
RMM:   5    -0.232134617805E+04    0.62227E-02   -0.82963E-03  5653   0.349E-02    0.850E-01
RMM:   6    -0.232134030564E+04    0.58724E-02   -0.51156E-03  5659   0.333E-02    0.485E-01
RMM:   7    -0.232133692787E+04    0.33778E-02   -0.35502E-03  4838   0.260E-02    0.601E-01
RMM:   8    -0.232133489370E+04    0.20342E-02   -0.11095E-03  4383   0.173E-02    0.689E-01
RMM:   9    -0.232133415544E+04    0.73826E-03   -0.17530E-04  3460   0.678E-03    0.719E-01
RMM:  10    -0.232134186611E+04   -0.77107E-02   -0.67961E-03  4606   0.365E-02    0.512E-01
RMM:  11    -0.232134425956E+04   -0.23934E-02   -0.25080E-03  4261   0.280E-02    0.581E-01
RMM:  12    -0.232134656490E+04   -0.23053E-02   -0.16616E-03  4847   0.180E-02    0.760E-01
RMM:  13    -0.232134335236E+04    0.32125E-02   -0.13531E-03  4167   0.171E-02    0.492E-01
RMM:  14    -0.232134000734E+04    0.33450E-02   -0.27919E-03  4461   0.236E-02    0.464E-01
RMM:  15    -0.232133776302E+04    0.22443E-02   -0.14253E-03  4256   0.183E-02    0.550E-01
RMM:  16    -0.232133676561E+04    0.99741E-03   -0.37765E-04  3700   0.878E-03    0.597E-01
RMM:  17    -0.232133785826E+04   -0.10927E-02   -0.11531E-04  3033   0.594E-03    0.544E-01
RMM:  18    -0.232134022192E+04   -0.23637E-02   -0.99144E-04  4125   0.139E-02    0.457E-01
RMM:  19    -0.232134246411E+04   -0.22422E-02   -0.13556E-03  4201   0.176E-02    0.460E-01
RMM:  20    -0.232134745395E+04   -0.49898E-02   -0.35861E-03  4853   0.267E-02    0.767E-01
RMM:  21    -0.232134411400E+04    0.33400E-02   -0.88116E-04  4204   0.152E-02    0.512E-01
RMM:  22    -0.232134303234E+04    0.10817E-02   -0.34199E-04  3451   0.886E-03    0.489E-01
RMM:  23    -0.232134129641E+04    0.17359E-02   -0.74379E-04  4299   0.124E-02    0.450E-01
RMM:  24    -0.232133823377E+04    0.30626E-02   -0.20414E-03  4498   0.205E-02    0.535E-01
RMM:  25    -0.232133614890E+04    0.20849E-02   -0.92086E-04  4192   0.152E-02    0.645E-01
RMM:  26    -0.232133626459E+04   -0.11569E-03   -0.83311E-05  3037   0.476E-03    0.638E-01
RMM:  27    -0.232133648325E+04   -0.21866E-03   -0.80187E-06  2702   0.280E-03    0.624E-01
RMM:  28    -0.232133721344E+04   -0.73019E-03   -0.65275E-05  2877   0.376E-03    0.582E-01
RMM:  29    -0.232133908863E+04   -0.18752E-02   -0.59670E-04  3989   0.105E-02    0.487E-01
RMM:  30    -0.232134087588E+04   -0.17873E-02   -0.83714E-04  4016   0.139E-02    0.434E-01
RMM:  31    -0.232134292668E+04   -0.20508E-02   -0.11706E-03  4597   0.156E-02    0.457E-01
RMM:  32    -0.232134518217E+04   -0.22555E-02   -0.10709E-03  4302   0.156E-02    0.574E-01
RMM:  33    -0.232134631595E+04   -0.11338E-02   -0.35088E-04  3689   0.950E-03    0.647E-01
RMM:  34    -0.232134634593E+04   -0.29986E-04   -0.43643E-05  2926   0.425E-03    0.649E-01
RMM:  35    -0.232134589531E+04    0.45062E-03   -0.18072E-05  2658   0.292E-03    0.619E-01
RMM:  36    -0.232134424538E+04    0.16499E-02   -0.35083E-04  3599   0.826E-03    0.515E-01
RMM:  37    -0.232134294215E+04    0.13032E-02   -0.38213E-04  3739   0.943E-03    0.458E-01
RMM:  38    -0.232134321674E+04   -0.27458E-03   -0.24269E-05  2727   0.380E-03    0.474E-01
RMM:  39    -0.232134330233E+04   -0.85591E-04   -0.50142E-06  2448   0.178E-03    0.476E-01
RMM:  40    -0.232134363902E+04   -0.33669E-03   -0.18439E-05  2633   0.216E-03    0.494E-01
RMM:  41    -0.232134372436E+04   -0.85343E-04   -0.35040E-06  2096   0.140E-03    0.498E-01
RMM:  42    -0.232134369903E+04    0.25338E-04   -0.45134E-07  1254   0.731E-04    0.498E-01
RMM:  43    -0.232134371484E+04   -0.15811E-04   -0.25631E-07   986   0.655E-04    0.498E-01
RMM:  44    -0.232134348516E+04    0.22967E-03   -0.67805E-06  1705   0.124E-03    0.485E-01
RMM:  45    -0.232134282339E+04    0.66177E-03   -0.79943E-05  2859   0.391E-03    0.449E-01
RMM:  46    -0.232134197350E+04    0.84989E-03   -0.16036E-04  3167   0.547E-03    0.418E-01
RMM:  47    -0.232134105632E+04    0.91718E-03   -0.22142E-04  3238   0.640E-03    0.410E-01
RMM:  48    -0.232134019225E+04    0.86408E-03   -0.21044E-04  3270   0.652E-03    0.422E-01
RMM:  49    -0.232133972828E+04    0.46397E-03   -0.89032E-05  3041   0.510E-03    0.436E-01
RMM:  50    -0.232133929531E+04    0.43296E-03   -0.60597E-05  3012   0.414E-03    0.452E-01
RMM:  51    -0.232133905138E+04    0.24393E-03   -0.21437E-05  2851   0.357E-03    0.461E-01
RMM:  52    -0.232133919808E+04   -0.14670E-03   -0.37012E-06  2501   0.192E-03    0.456E-01
RMM:  53    -0.232133918071E+04    0.17364E-04   -0.68358E-07  2037   0.995E-04    0.456E-01
RMM:  54    -0.232133919053E+04   -0.98136E-05   -0.29334E-07  1820   0.872E-04
   9 F= -.23427807E+04 E0= -.23427771E+04  d E =-.709360E-02  mag=     4.0876
       N       E                     dE             d eps       ncg     rms          rms(c)
DAV:   1    -0.232132573532E+04    0.13445E-01   -0.68307E-01  4920   0.396E-01    0.589E-01
RMM:   2    -0.232132707311E+04   -0.13378E-02   -0.16263E-02  4829   0.676E-02    0.547E-01
RMM:   3    -0.232133049109E+04   -0.34180E-02   -0.54812E-03  5063   0.449E-02    0.956E-01
RMM:   4    -0.232133059569E+04   -0.10459E-03   -0.65168E-04  4014   0.112E-02    0.972E-01
RMM:   5    -0.232133061842E+04   -0.22729E-04   -0.44881E-05  3079   0.468E-03    0.976E-01
RMM:   6    -0.232133172125E+04   -0.11028E-02   -0.59992E-03  5560   0.366E-02    0.104E+00
RMM:   7    -0.232132876439E+04    0.29569E-02   -0.93536E-03  5902   0.453E-02    0.899E-01
RMM:   8    -0.232132842265E+04    0.34174E-03   -0.31997E-03  5587   0.278E-02    0.858E-01
RMM:   9    -0.232132777628E+04    0.64637E-03   -0.84919E-04  3851   0.142E-02    0.815E-01
RMM:  10    -0.232132675010E+04    0.10262E-02   -0.19395E-04  3717   0.809E-03    0.779E-01
RMM:  11    -0.232132635890E+04    0.39120E-03   -0.15458E-04  3848   0.701E-03    0.760E-01
RMM:  12    -0.232132638085E+04   -0.21944E-04   -0.20619E-05  2977   0.453E-03    0.761E-01
RMM:  13    -0.232132627622E+04    0.10462E-03   -0.26575E-05  2969   0.378E-03    0.769E-01
RMM:  14    -0.232132618088E+04    0.95344E-04   -0.18758E-05  2925   0.359E-03    0.778E-01
RMM:  15    -0.232132604613E+04    0.13475E-03   -0.18111E-05  2903   0.317E-03    0.783E-01
RMM:  16    -0.232132596613E+04    0.79999E-04   -0.71732E-06  2739   0.264E-03    0.786E-01
RMM:  17    -0.232132597850E+04   -0.12371E-04   -0.13164E-06  2494   0.158E-03    0.785E-01
RMM:  18    -0.232132596147E+04    0.17034E-04   -0.21692E-06  2294   0.130E-03    0.788E-01
RMM:  19    -0.232132597557E+04   -0.14099E-04   -0.52108E-07  2106   0.117E-03    0.787E-01
RMM:  20    -0.232132596100E+04    0.14573E-04   -0.31550E-07  1581   0.683E-04    0.788E-01
RMM:  21    -0.232132599093E+04   -0.29930E-04   -0.37086E-07  1537   0.750E-04    0.786E-01
RMM:  22    -0.232132606654E+04   -0.75617E-04   -0.58283E-06  2228   0.120E-03    0.781E-01
RMM:  23    -0.232132637982E+04   -0.31328E-03   -0.73831E-05  3051   0.386E-03    0.764E-01
RMM:  24    -0.232132655252E+04   -0.17270E-03   -0.24062E-05  2762   0.277E-03    0.761E-01
RMM:  25    -0.232132646143E+04    0.91090E-04   -0.24421E-06  2350   0.156E-03    0.763E-01
RMM:  26    -0.232132617413E+04    0.28730E-03   -0.30028E-05  2617   0.252E-03    0.770E-01
RMM:  27    -0.232132644384E+04   -0.26971E-03   -0.19180E-05  2428   0.242E-03    0.763E-01
RMM:  28    -0.232132806929E+04   -0.16254E-02   -0.93391E-04  4314   0.132E-02    0.752E-01
RMM:  29    -0.232132807866E+04   -0.93691E-05   -0.67553E-05  2969   0.627E-03
  10 F= -.23427687E+04 E0= -.23427610E+04  d E =-.154566E-01  mag=     3.8281
       N       E                     dE             d eps       ncg     rms          rms(c)
DAV:   1    -0.232135278509E+04   -0.24716E-01   -0.12901E+00  4720   0.552E-01    0.937E-01
RMM:   2    -0.232138469395E+04   -0.31909E-01   -0.80717E-02  5965   0.133E-01    0.190E+00
RMM:   3    -0.232135589035E+04    0.28804E-01   -0.25614E-02  6189   0.779E-02    0.130E+00
RMM:   4    -0.232135723843E+04   -0.13481E-02   -0.31378E-03  4556   0.176E-02    0.142E+00
RMM:   5    -0.232134857097E+04    0.86675E-02   -0.81542E-03  5409   0.411E-02    0.764E-01
RMM:   6    -0.232134773832E+04    0.83265E-03   -0.45403E-03  5376   0.319E-02    0.703E-01
RMM:   7    -0.232134522799E+04    0.25103E-02   -0.16901E-03  5193   0.193E-02    0.467E-01
RMM:   8    -0.232134323931E+04    0.19887E-02   -0.14717E-03  4597   0.168E-02    0.420E-01
RMM:   9    -0.232134210337E+04    0.11359E-02   -0.88800E-04  4353   0.150E-02    0.470E-01
RMM:  10    -0.232134097513E+04    0.11282E-02   -0.31844E-04  3718   0.964E-03    0.462E-01
RMM:  11    -0.232133973301E+04    0.12421E-02   -0.27619E-04  3800   0.868E-03    0.499E-01
RMM:  12    -0.232134422848E+04   -0.44955E-02   -0.30988E-03  4355   0.241E-02    0.458E-01
RMM:  13    -0.232135047723E+04   -0.62487E-02   -0.57862E-03  4720   0.359E-02    0.847E-01
RMM:  14    -0.232134956540E+04    0.91183E-03   -0.35709E-04  3602   0.136E-02    0.757E-01
RMM:  15    -0.232135022890E+04   -0.66350E-03   -0.14764E-04  3233   0.491E-03    0.826E-01
RMM:  16    -0.232135039400E+04   -0.16510E-03   -0.16402E-05  2813   0.359E-03    0.832E-01
RMM:  17    -0.232134593095E+04    0.44630E-02   -0.25971E-03  4578   0.222E-02    0.522E-01
RMM:  18    -0.232134438714E+04    0.15438E-02   -0.95192E-04  4122   0.176E-02    0.493E-01
RMM:  19    -0.232134297132E+04    0.14158E-02   -0.84214E-04  4606   0.129E-02    0.475E-01
RMM:  20    -0.232134180925E+04    0.11621E-02   -0.38700E-04  3739   0.104E-02    0.482E-01
RMM:  21    -0.232134096820E+04    0.84105E-03   -0.24933E-04  3498   0.798E-03    0.505E-01
RMM:  22    -0.232134073104E+04    0.23716E-03   -0.44403E-05  2995   0.457E-03    0.514E-01
RMM:  23    -0.232134147495E+04   -0.74391E-03   -0.90178E-05  2867   0.460E-03    0.489E-01
RMM:  24    -0.232134408098E+04   -0.26060E-02   -0.15789E-03  4277   0.171E-02    0.485E-01
RMM:  25    -0.232134587800E+04   -0.17970E-02   -0.93076E-04  3963   0.154E-02    0.568E-01
RMM:  26    -0.232134427188E+04    0.16061E-02   -0.35065E-04  3367   0.877E-03    0.476E-01
RMM:  27    -0.232134256718E+04    0.17047E-02   -0.82898E-04  4093   0.126E-02    0.449E-01
RMM:  28    -0.232133949148E+04    0.30757E-02   -0.21347E-03  4459   0.211E-02    0.560E-01
RMM:  29    -0.232133488860E+04    0.46029E-02   -0.26661E-03  4685   0.240E-02    0.816E-01
RMM:  30    -0.232133569633E+04   -0.80773E-03   -0.12776E-04  3156   0.718E-03    0.771E-01
RMM:  31    -0.232133513275E+04    0.56358E-03   -0.50357E-05  2962   0.339E-03    0.798E-01
RMM:  32    -0.232133555907E+04   -0.42632E-03   -0.15774E-05  2795   0.284E-03    0.769E-01
RMM:  33    -0.232133802631E+04   -0.24672E-02   -0.57616E-04  3901   0.106E-02    0.626E-01
RMM:  34    -0.232134056019E+04   -0.25339E-02   -0.10884E-03  4227   0.156E-02    0.484E-01
RMM:  35    -0.232134301495E+04   -0.24548E-02   -0.16584E-03  4589   0.185E-02    0.409E-01
RMM:  36    -0.232134527736E+04   -0.22624E-02   -0.15381E-03  4432   0.182E-02    0.469E-01
RMM:  37    -0.232134699512E+04   -0.17178E-02   -0.79952E-04  4199   0.133E-02    0.576E-01
RMM:  38    -0.232134863602E+04   -0.16409E-02   -0.47838E-04  3868   0.103E-02    0.697E-01
RMM:  39    -0.232134916364E+04   -0.52762E-03   -0.89529E-05  3047   0.615E-03    0.735E-01
RMM:  40    -0.232134914542E+04    0.18217E-04   -0.13450E-05  2848   0.314E-03    0.735E-01
RMM:  41    -0.232134906289E+04    0.82535E-04   -0.24890E-06  2568   0.183E-03    0.729E-01
RMM:  42    -0.232134905409E+04    0.87951E-05   -0.35166E-06  2542   0.155E-03
  11 F= -.23427906E+04 E0= -.23427789E+04  d E =-.234310E-01  mag=     3.7593
       N       E                     dE             d eps       ncg     rms          rms(c)
DAV:   1    -0.232132777316E+04    0.21290E-01   -0.66179E-01  4880   0.385E-01    0.833E-01
RMM:   2    -0.232134373168E+04   -0.15959E-01   -0.26977E-02  5155   0.844E-02    0.166E+00
RMM:   3    -0.232134576610E+04   -0.20344E-02   -0.75146E-03  5078   0.488E-02    0.136E+00
RMM:   4    -0.232132545295E+04    0.20313E-01   -0.22533E-02  5935   0.643E-02    0.831E-01
RMM:   5    -0.232132370641E+04    0.17465E-02   -0.89955E-03  5615   0.377E-02    0.839E-01
RMM:   6    -0.232131805555E+04    0.56509E-02   -0.31613E-03  5298   0.266E-02    0.475E-01
RMM:   7    -0.232131419516E+04    0.38604E-02   -0.24650E-03  4483   0.217E-02    0.523E-01
RMM:   8    -0.232131293686E+04    0.12583E-02   -0.35014E-04  3729   0.124E-02    0.562E-01
RMM:   9    -0.232131814806E+04   -0.52112E-02   -0.21693E-03  4235   0.212E-02    0.484E-01
RMM:  10    -0.232132296692E+04   -0.48189E-02   -0.36336E-03  4613   0.286E-02    0.618E-01
RMM:  11    -0.232133244630E+04   -0.94794E-02   -0.58786E-03  5028   0.354E-02    0.124E+00
RMM:  12    -0.232132074759E+04    0.11699E-01   -0.84119E-03  4741   0.402E-02    0.450E-01
RMM:  13    -0.232132158347E+04   -0.83588E-03   -0.44878E-04  4234   0.155E-02    0.549E-01
RMM:  14    -0.232132024109E+04    0.13424E-02   -0.37176E-04  3947   0.913E-03    0.468E-01
RMM:  15    -0.232131829309E+04    0.19480E-02   -0.79568E-04  4213   0.132E-02    0.455E-01
RMM:  16    -0.232131606056E+04    0.22325E-02   -0.10925E-03  4337   0.158E-02    0.522E-01
RMM:  17    -0.232131779906E+04   -0.17385E-02   -0.35944E-04  3598   0.909E-03    0.469E-01
RMM:  18    -0.232131868561E+04   -0.88655E-03   -0.21275E-04  3204   0.733E-03    0.452E-01
RMM:  19    -0.232132674818E+04   -0.80626E-02   -0.77053E-03  4892   0.380E-02    0.865E-01
RMM:  20    -0.232132148421E+04    0.52640E-02   -0.20938E-03  4702   0.225E-02    0.483E-01
RMM:  21    -0.232132199479E+04   -0.51058E-03   -0.97612E-05  3157   0.850E-03    0.549E-01
RMM:  22    -0.232131903539E+04    0.29594E-02   -0.16704E-03  4529   0.177E-02    0.455E-01
RMM:  23    -0.232131658956E+04    0.24458E-02   -0.14386E-03  4334   0.186E-02    0.524E-01
RMM:  24    -0.232131291533E+04    0.36742E-02   -0.21017E-03  4774   0.208E-02    0.714E-01
RMM:  25    -0.232131302871E+04   -0.11338E-03   -0.12756E-04  3134   0.752E-03    0.708E-01
RMM:  26    -0.232131267704E+04    0.35167E-03   -0.42397E-05  2979   0.334E-03    0.727E-01
RMM:  27    -0.232131239534E+04    0.28169E-03   -0.11971E-05  2864   0.277E-03    0.742E-01
RMM:  28    -0.232131239625E+04   -0.90964E-06   -0.19141E-06  2429   0.162E-03
  12 F= -.23427535E+04 E0= -.23427522E+04  d E =-.265415E-02  mag=     4.2713
       N       E                     dE             d eps       ncg     rms          rms(c)
DAV:   1    -0.232134476240E+04   -0.32367E-01   -0.12747E+00  4720   0.545E-01    0.848E-01
RMM:   2    -0.232135055106E+04   -0.57887E-02   -0.26890E-02  4997   0.842E-02    0.685E-01
RMM:   3    -0.232135702965E+04   -0.64786E-02   -0.14722E-02  5775   0.624E-02    0.122E+00
RMM:   4    -0.232135029905E+04    0.67306E-02   -0.63224E-03  5233   0.379E-02    0.916E-01
RMM:   5    -0.232135064336E+04   -0.34431E-03   -0.91559E-04  4081   0.164E-02    0.835E-01
RMM:   6    -0.232134617022E+04    0.44731E-02   -0.12264E-02  4976   0.496E-02    0.582E-01
RMM:   7    -0.232134087231E+04    0.52979E-02   -0.70629E-03  5272   0.409E-02    0.873E-01
RMM:   8    -0.232133252306E+04    0.83493E-02   -0.54411E-03  5173   0.334E-02    0.125E+00
RMM:   9    -0.232132821293E+04    0.43101E-02   -0.11047E-03  4364   0.175E-02    0.140E+00
RMM:  10    -0.232134413684E+04   -0.15924E-01   -0.98208E-03  4682   0.435E-02    0.694E-01
RMM:  11    -0.232134579866E+04   -0.16618E-02   -0.16050E-03  4245   0.259E-02    0.542E-01
RMM:  12    -0.232134767227E+04   -0.18736E-02   -0.17461E-03  4964   0.189E-02    0.424E-01
RMM:  13    -0.232134893903E+04   -0.12668E-02   -0.82738E-04  4108   0.157E-02    0.398E-01
RMM:  14    -0.232134970577E+04   -0.76674E-03   -0.38561E-04  3940   0.102E-02    0.414E-01
RMM:  15    -0.232134888275E+04    0.82302E-03   -0.17470E-04  3226   0.710E-03    0.394E-01
RMM:  16    -0.232134793607E+04    0.94668E-03   -0.35627E-04  3611   0.878E-03    0.411E-01
RMM:  17    -0.232134666718E+04    0.12689E-02   -0.51374E-04  3865   0.104E-02    0.466E-01
RMM:  18    -0.232135540127E+04   -0.87341E-02   -0.11746E-02  4864   0.462E-02    0.755E-01
RMM:  19    -0.232136034762E+04   -0.49463E-02   -0.30875E-03  4407   0.308E-02    0.112E+00
RMM:  20    -0.232135983888E+04    0.50875E-03   -0.42336E-04  3618   0.981E-03    0.107E+00
RMM:  21    -0.232135913456E+04    0.70431E-03   -0.52352E-05  2985   0.482E-03    0.103E+00
RMM:  22    -0.232135073889E+04    0.83957E-02   -0.73205E-03  4767   0.369E-02    0.394E-01
RMM:  23    -0.232134694263E+04    0.37963E-02   -0.49210E-03  4573   0.357E-02    0.468E-01
RMM:  24    -0.232134088836E+04    0.60543E-02   -0.57664E-03  5311   0.334E-02    0.818E-01
RMM:  25    -0.232133935777E+04    0.15306E-02   -0.59061E-04  4141   0.133E-02    0.894E-01
RMM:  26    -0.232133876127E+04    0.59649E-03   -0.14318E-04  3232   0.508E-03    0.923E-01
RMM:  27    -0.232133923763E+04   -0.47636E-03   -0.11175E-05  2907   0.349E-03    0.902E-01
RMM:  28    -0.232134065291E+04   -0.14153E-02   -0.91220E-05  2936   0.441E-03    0.838E-01
RMM:  29    -0.232134488370E+04   -0.42308E-02   -0.13808E-03  4277   0.159E-02    0.613E-01
RMM:  30    -0.232134690871E+04   -0.20250E-02   -0.85098E-04  3960   0.145E-02    0.498E-01
RMM:  31    -0.232134938095E+04   -0.24722E-02   -0.17307E-03  4670   0.185E-02    0.413E-01
RMM:  32    -0.232135296780E+04   -0.35869E-02   -0.32774E-03  4710   0.260E-02    0.560E-01
RMM:  33    -0.232135802869E+04   -0.50609E-02   -0.28930E-03  4639   0.249E-02    0.956E-01
RMM:  34    -0.232136281747E+04   -0.47888E-02   -0.13781E-03  4444   0.174E-02    0.128E+00
RMM:  35    -0.232136707954E+04   -0.42621E-02   -0.67058E-04  4242   0.123E-02    0.153E+00
RMM:  36    -0.232136805726E+04   -0.97773E-03   -0.96035E-05  3053   0.675E-03    0.158E+00
RMM:  37    -0.232136846640E+04   -0.40914E-03   -0.27145E-05  2983   0.350E-03    0.160E+00
RMM:  38    -0.232136715709E+04    0.13093E-02   -0.24621E-05  2830   0.313E-03    0.154E+00
RMM:  39    -0.232136271967E+04    0.44374E-02   -0.42017E-04  3648   0.889E-03    0.128E+00
RMM:  40    -0.232136018423E+04    0.25354E-02   -0.28061E-04  3307   0.859E-03    0.112E+00
RMM:  41    -0.232135835834E+04    0.18259E-02   -0.23378E-04  3556   0.706E-03    0.985E-01
RMM:  42    -0.232136119081E+04   -0.28325E-02   -0.25892E-04  3348   0.833E-03    0.118E+00
RMM:  43    -0.232136179780E+04   -0.60699E-03   -0.49511E-05  2836   0.436E-03    0.121E+00
RMM:  44    -0.232136167283E+04    0.12497E-03   -0.48322E-06  2510   0.192E-03    0.121E+00
RMM:  45    -0.232136066859E+04    0.10042E-02   -0.25314E-05  2464   0.225E-03    0.114E+00
RMM:  46    -0.232135980650E+04    0.86209E-03   -0.30987E-05  2797   0.265E-03    0.108E+00
RMM:  47    -0.232135859572E+04    0.12108E-02   -0.67413E-05  2994   0.374E-03    0.996E-01
RMM:  48    -0.232135873846E+04   -0.14275E-03   -0.71911E-06  2542   0.279E-03    0.101E+00
RMM:  49    -0.232135761494E+04    0.11235E-02   -0.60680E-05  2929   0.344E-03    0.920E-01
RMM:  50    -0.232135638099E+04    0.12339E-02   -0.10578E-04  3107   0.453E-03    0.827E-01
RMM:  51    -0.232135536906E+04    0.10119E-02   -0.10685E-04  3018   0.496E-03    0.749E-01
RMM:  52    -0.232135424030E+04    0.11288E-02   -0.16307E-04  3325   0.576E-03    0.661E-01
RMM:  53    -0.232135367634E+04    0.56395E-03   -0.68477E-05  2983   0.473E-03    0.622E-01
RMM:  54    -0.232135342385E+04    0.25250E-03   -0.27231E-05  2864   0.315E-03    0.604E-01
RMM:  55    -0.232135339192E+04    0.31931E-04   -0.33839E-06  2530   0.213E-03    0.600E-01
RMM:  56    -0.232135339649E+04   -0.45722E-05   -0.92435E-07  2174   0.113E-03
  13 F= -.23427945E+04 E0= -.23427843E+04  d E =-.204042E-01  mag=     3.8396
       N       E                     dE             d eps       ncg     rms          rms(c)
DAV:   1    -0.232134307313E+04    0.10319E-01   -0.62765E-01  4840   0.430E-01    0.771E-01
RMM:   2    -0.232135482497E+04   -0.11752E-01   -0.20657E-02  5105   0.770E-02    0.132E+00
RMM:   3    -0.232135706676E+04   -0.22418E-02   -0.54301E-03  4829   0.401E-02    0.107E+00
RMM:   4    -0.232134135127E+04    0.15715E-01   -0.22834E-02  5795   0.666E-02    0.739E-01
RMM:   5    -0.232133967262E+04    0.16786E-02   -0.56710E-03  5445   0.281E-02    0.642E-01
RMM:   6    -0.232133419367E+04    0.54790E-02   -0.43865E-03  4685   0.306E-02    0.578E-01
RMM:   7    -0.232133138196E+04    0.28117E-02   -0.13143E-03  4181   0.213E-02    0.611E-01
RMM:   8    -0.232132892464E+04    0.24573E-02   -0.80187E-04  4483   0.130E-02    0.699E-01
RMM:   9    -0.232133854390E+04   -0.96193E-02   -0.78991E-03  4582   0.384E-02    0.514E-01
RMM:  10    -0.232134348634E+04   -0.49424E-02   -0.48293E-03  4468   0.358E-02    0.737E-01
RMM:  11    -0.232134792117E+04   -0.44348E-02   -0.24109E-03  5032   0.229E-02    0.105E+00
RMM:  12    -0.232134378465E+04    0.41365E-02   -0.75487E-04  4064   0.139E-02    0.720E-01
RMM:  13    -0.232134017775E+04    0.36069E-02   -0.17292E-03  4240   0.186E-02    0.508E-01
RMM:  14    -0.232133872775E+04    0.14500E-02   -0.66922E-04  3881   0.140E-02    0.456E-01
RMM:  15    -0.232133763438E+04    0.10934E-02   -0.47068E-04  4001   0.977E-03    0.440E-01
RMM:  16    -0.232133618186E+04    0.14525E-02   -0.48957E-04  3926   0.110E-02    0.458E-01
RMM:  17    -0.232133518307E+04    0.99878E-03   -0.26581E-04  3554   0.868E-03    0.493E-01
RMM:  18    -0.232133715415E+04   -0.19711E-02   -0.54747E-04  3726   0.106E-02    0.445E-01
RMM:  19    -0.232134043456E+04   -0.32804E-02   -0.21492E-03  4417   0.209E-02    0.525E-01
RMM:  20    -0.232134670696E+04   -0.62724E-02   -0.38706E-03  4692   0.284E-02    0.960E-01
RMM:  21    -0.232134199452E+04    0.47124E-02   -0.11960E-03  4307   0.171E-02    0.592E-01
RMM:  22    -0.232134330458E+04   -0.13101E-02   -0.12354E-04  3184   0.747E-03    0.722E-01
RMM:  23    -0.232134119418E+04    0.21104E-02   -0.39556E-04  3555   0.932E-03    0.563E-01
RMM:  24    -0.232133877697E+04    0.24172E-02   -0.11307E-03  4305   0.147E-02    0.461E-01
RMM:  25    -0.232133641004E+04    0.23669E-02   -0.14420E-03  4272   0.176E-02    0.469E-01
RMM:  26    -0.232133415286E+04    0.22572E-02   -0.12172E-03  4450   0.160E-02    0.561E-01
RMM:  27    -0.232133266686E+04    0.14860E-02   -0.47064E-04  3853   0.106E-02    0.639E-01
RMM:  28    -0.232133329652E+04   -0.62966E-03   -0.39147E-05  2949   0.444E-03    0.605E-01
RMM:  29    -0.232133434406E+04   -0.10475E-02   -0.14477E-04  3088   0.555E-03    0.550E-01
RMM:  30    -0.232133528608E+04   -0.94202E-03   -0.17265E-04  3270   0.614E-03    0.506E-01
RMM:  31    -0.232133775381E+04   -0.24677E-02   -0.12677E-03  4454   0.153E-02    0.449E-01
RMM:  32    -0.232134035086E+04   -0.25970E-02   -0.15797E-03  4371   0.188E-02    0.525E-01
RMM:  33    -0.232134156647E+04   -0.12156E-02   -0.48833E-04  3876   0.106E-02    0.594E-01
RMM:  34    -0.232134200946E+04   -0.44299E-03   -0.10306E-04  3041   0.538E-03    0.624E-01
RMM:  35    -0.232134195876E+04    0.50703E-04   -0.78772E-06  2728   0.297E-03    0.621E-01
RMM:  36    -0.232134186080E+04    0.97959E-04   -0.21437E-06  2517   0.157E-03    0.615E-01
RMM:  37    -0.232134155918E+04    0.30162E-03   -0.10460E-05  2491   0.189E-03    0.595E-01
RMM:  38    -0.232134046676E+04    0.10924E-02   -0.16619E-04  3221   0.567E-03    0.528E-01
RMM:  39    -0.232133832719E+04    0.21396E-02   -0.90607E-04  4185   0.129E-02    0.449E-01
RMM:  40    -0.232133633365E+04    0.19935E-02   -0.10289E-03  4040   0.152E-02    0.466E-01
RMM:  41    -0.232133543379E+04    0.89986E-03   -0.33261E-04  3618   0.866E-03    0.496E-01
RMM:  42    -0.232133483683E+04    0.59696E-03   -0.12400E-04  3157   0.585E-03    0.520E-01
RMM:  43    -0.232133418559E+04    0.65124E-03   -0.85937E-05  3101   0.520E-03    0.550E-01
RMM:  44    -0.232133470513E+04   -0.51954E-03   -0.32082E-05  2788   0.371E-03    0.526E-01
RMM:  45    -0.232133623064E+04   -0.15255E-02   -0.40405E-04  3621   0.879E-03    0.468E-01
RMM:  46    -0.232133787997E+04   -0.16493E-02   -0.64658E-04  3940   0.117E-02    0.447E-01
RMM:  47    -0.232133954777E+04   -0.16678E-02   -0.72028E-04  4046   0.122E-02    0.486E-01
RMM:  48    -0.232134007656E+04   -0.52879E-03   -0.14039E-04  3132   0.654E-03    0.508E-01
RMM:  49    -0.232134098492E+04   -0.90836E-03   -0.17330E-04  3467   0.620E-03    0.561E-01
RMM:  50    -0.232134134198E+04   -0.35706E-03   -0.38305E-05  2958   0.446E-03    0.582E-01
RMM:  51    -0.232134215798E+04   -0.81600E-03   -0.96716E-05  3150   0.479E-03    0.639E-01
RMM:  52    -0.232134281130E+04   -0.65332E-03   -0.57331E-05  2952   0.431E-03    0.684E-01
RMM:  53    -0.232134318807E+04   -0.37677E-03   -0.28448E-05  2901   0.346E-03    0.710E-01
RMM:  54    -0.232134302146E+04    0.16661E-03   -0.34294E-06  2549   0.215E-03    0.698E-01
RMM:  55    -0.232134213653E+04    0.88493E-03   -0.70404E-05  2830   0.359E-03    0.635E-01
RMM:  56    -0.232134044922E+04    0.16873E-02   -0.39419E-04  3669   0.841E-03    0.529E-01
RMM:  57    -0.232133886117E+04    0.15881E-02   -0.53845E-04  3806   0.107E-02    0.465E-01
RMM:  58    -0.232133845175E+04    0.40942E-03   -0.11706E-04  3087   0.570E-03    0.458E-01
RMM:  59    -0.232133844815E+04    0.36069E-05   -0.18354E-05  2761   0.279E-03
  14 F= -.23427798E+04 E0= -.23427734E+04  d E =-.127987E-01  mag=     3.9914
       N       E                     dE             d eps       ncg     rms          rms(c)
DAV:   1    -0.232132908486E+04    0.93669E-02   -0.12855E+00  4760   0.600E-01    0.620E-01
RMM:   2    -0.232132863602E+04    0.44884E-03   -0.18080E-02  4748   0.755E-02    0.562E-01
RMM:   3    -0.232133327002E+04   -0.46340E-02   -0.55694E-03  5042   0.462E-02    0.114E+00
RMM:   4    -0.232133519362E+04   -0.19236E-02   -0.13313E-03  4797   0.169E-02    0.125E+00
RMM:   5    -0.232132796057E+04    0.72330E-02   -0.81291E-03  5321   0.356E-02    0.677E-01
RMM:   6    -0.232132429318E+04    0.36674E-02   -0.36087E-03  5096   0.280E-02    0.425E-01
RMM:   7    -0.232132078875E+04    0.35044E-02   -0.39786E-03  4785   0.272E-02    0.582E-01
RMM:   8    -0.232131856958E+04    0.22192E-02   -0.92964E-04  4131   0.183E-02    0.690E-01
RMM:   9    -0.232132151297E+04   -0.29434E-02   -0.60458E-04  3829   0.113E-02    0.563E-01
RMM:  10    -0.232132560041E+04   -0.40874E-02   -0.42184E-03  4657   0.296E-02    0.383E-01
RMM:  11    -0.232132833288E+04   -0.27325E-02   -0.29115E-03  4504   0.277E-02    0.504E-01
RMM:  12    -0.232132921388E+04   -0.88099E-03   -0.59566E-04  4283   0.126E-02    0.572E-01
RMM:  13    -0.232132848256E+04    0.73132E-03   -0.94495E-05  3146   0.601E-03    0.506E-01
RMM:  14    -0.232132533133E+04    0.31512E-02   -0.27139E-03  4371   0.230E-02    0.372E-01
RMM:  15    -0.232132320248E+04    0.21289E-02   -0.16153E-03  4120   0.212E-02    0.437E-01
RMM:  16    -0.232132169909E+04    0.15034E-02   -0.83829E-04  4508   0.130E-02    0.514E-01
RMM:  17    -0.232132205310E+04   -0.35401E-03   -0.32288E-05  2967   0.468E-03    0.495E-01
RMM:  18    -0.232132446213E+04   -0.24090E-02   -0.11099E-03  4120   0.147E-02    0.391E-01
RMM:  19    -0.232132682532E+04   -0.23632E-02   -0.18156E-03  4368   0.202E-02    0.409E-01
RMM:  20    -0.232132891627E+04   -0.20910E-02   -0.12682E-03  4381   0.163E-02    0.538E-01
RMM:  21    -0.232132696699E+04    0.19493E-02   -0.55612E-04  3891   0.111E-02    0.406E-01
RMM:  22    -0.232132682777E+04    0.13922E-03   -0.51287E-05  2935   0.479E-03    0.414E-01
RMM:  23    -0.232132470812E+04    0.21197E-02   -0.13435E-03  4439   0.158E-02    0.389E-01
RMM:  24    -0.232132221415E+04    0.24940E-02   -0.16499E-03  4357   0.199E-02    0.499E-01
RMM:  25    -0.232132085295E+04    0.13612E-02   -0.61407E-04  4135   0.117E-02    0.579E-01
RMM:  26    -0.232132133933E+04   -0.48638E-03   -0.37211E-05  2960   0.431E-03    0.551E-01
RMM:  27    -0.232132253101E+04   -0.11917E-02   -0.22489E-04  3254   0.688E-03    0.481E-01
RMM:  28    -0.232132504393E+04   -0.25129E-02   -0.15793E-03  4313   0.173E-02    0.388E-01
RMM:  29    -0.232132819328E+04   -0.31494E-02   -0.27752E-03  4449   0.242E-02    0.496E-01
RMM:  30    -0.232133097313E+04   -0.27799E-02   -0.15500E-03  4515   0.187E-02    0.704E-01
RMM:  31    -0.232133304015E+04   -0.20670E-02   -0.67012E-04  4059   0.116E-02    0.864E-01
RMM:  32    -0.232133304888E+04   -0.87223E-05   -0.60429E-05  2938   0.572E-03
  15 F= -.23427739E+04 E0= -.23427612E+04  d E =-.255757E-01  mag=     3.6810
       N       E                     dE             d eps       ncg     rms          rms(c)
DAV:   1    -0.232134226245E+04   -0.92223E-02   -0.64375E-01  4760   0.417E-01    0.109E+00
RMM:   2    -0.232137283179E+04   -0.30569E-01   -0.44089E-02  5170   0.101E-01    0.217E+00
RMM:   3    -0.232138106728E+04   -0.82355E-02   -0.11478E-02  5106   0.572E-02    0.198E+00
RMM:   4    -0.232133681252E+04    0.44255E-01   -0.46308E-02  5796   0.935E-02    0.812E-01
RMM:   5    -0.232133530338E+04    0.15091E-02   -0.13146E-02  5826   0.443E-02    0.832E-01
RMM:   6    -0.232132929504E+04    0.60083E-02   -0.43765E-03  5081   0.306E-02    0.442E-01
RMM:   7    -0.232132695969E+04    0.23354E-02   -0.23485E-03  4910   0.230E-02    0.450E-01
RMM:   8    -0.232132461797E+04    0.23417E-02   -0.14556E-03  4834   0.172E-02    0.476E-01
RMM:   9    -0.232132125493E+04    0.33630E-02   -0.12181E-03  4280   0.159E-02    0.588E-01
RMM:  10    -0.232132755221E+04   -0.62973E-02   -0.29777E-03  4328   0.235E-02    0.432E-01
RMM:  11    -0.232133377853E+04   -0.62263E-02   -0.56346E-03  4618   0.352E-02    0.607E-01
RMM:  12    -0.232134604147E+04   -0.12263E-01   -0.84511E-03  5007   0.429E-02    0.141E+00
RMM:  13    -0.232133719473E+04    0.88467E-02   -0.22013E-03  4483   0.240E-02    0.777E-01
RMM:  14    -0.232133583227E+04    0.13625E-02   -0.46396E-04  3525   0.114E-02    0.747E-01
RMM:  15    -0.232133249699E+04    0.33353E-02   -0.15364E-03  4598   0.170E-02    0.493E-01
RMM:  16    -0.232133126112E+04    0.12359E-02   -0.54964E-04  3910   0.133E-02    0.435E-01
RMM:  17    -0.232133026051E+04    0.10006E-02   -0.46948E-04  4029   0.989E-03    0.405E-01
RMM:  18    -0.232132895495E+04    0.13056E-02   -0.50943E-04  3893   0.114E-02    0.411E-01
RMM:  19    -0.232132668592E+04    0.22690E-02   -0.12316E-03  4500   0.164E-02    0.510E-01
RMM:  20    -0.232132770385E+04   -0.10179E-02   -0.12327E-04  3129   0.715E-03    0.460E-01
RMM:  21    -0.232132793098E+04   -0.22713E-03   -0.24973E-05  2814   0.343E-03    0.446E-01
RMM:  22    -0.232133283583E+04   -0.49049E-02   -0.50853E-03  4760   0.309E-02    0.487E-01
RMM:  23    -0.232134314978E+04   -0.10314E-01   -0.81747E-03  4891   0.427E-02    0.123E+00
RMM:  24    -0.232134578546E+04   -0.26357E-02   -0.13575E-03  4365   0.196E-02    0.136E+00
RMM:  25    -0.232134950034E+04   -0.37149E-02   -0.71914E-04  4188   0.103E-02    0.157E+00
RMM:  26    -0.232134914656E+04    0.35378E-03   -0.35281E-05  2925   0.566E-03    0.155E+00
RMM:  27    -0.232134689513E+04    0.22514E-02   -0.82378E-05  2921   0.452E-03    0.144E+00
RMM:  28    -0.232134514187E+04    0.17533E-02   -0.94806E-05  3058   0.469E-03    0.134E+00
RMM:  29    -0.232133823140E+04    0.69105E-02   -0.15694E-03  4593   0.170E-02    0.868E-01
RMM:  30    -0.232133235018E+04    0.58812E-02   -0.37541E-03  4761   0.282E-02    0.438E-01
RMM:  31    -0.232133055855E+04    0.17916E-02   -0.14829E-03  4431   0.190E-02    0.381E-01
RMM:  32    -0.232132902886E+04    0.15297E-02   -0.10085E-03  4592   0.139E-02    0.389E-01
RMM:  33    -0.232132608624E+04    0.29426E-02   -0.17921E-03  4578   0.194E-02    0.526E-01
RMM:  34    -0.232132252876E+04    0.35575E-02   -0.15553E-03  4399   0.191E-02    0.726E-01
RMM:  35    -0.232131938174E+04    0.31470E-02   -0.89572E-04  4383   0.143E-02    0.889E-01
RMM:  36    -0.232131931470E+04    0.67037E-04   -0.64365E-05  3044   0.511E-03    0.892E-01
RMM:  37    -0.232131948069E+04   -0.16598E-03   -0.61995E-06  2810   0.246E-03    0.883E-01
RMM:  38    -0.232132031650E+04   -0.83582E-03   -0.33418E-05  2773   0.287E-03    0.840E-01
RMM:  39    -0.232132120080E+04   -0.88430E-03   -0.53894E-05  2931   0.353E-03    0.793E-01
RMM:  40    -0.232132437912E+04   -0.31783E-02   -0.81454E-04  4236   0.122E-02    0.612E-01
RMM:  41    -0.232132444031E+04   -0.61187E-04   -0.55784E-05  2974   0.558E-03    0.603E-01
RMM:  42    -0.232132490036E+04   -0.46005E-03   -0.51050E-05  3021   0.346E-03    0.574E-01
RMM:  43    -0.232132526108E+04   -0.36073E-03   -0.22300E-05  2895   0.308E-03    0.550E-01
RMM:  44    -0.232132534910E+04   -0.88021E-04   -0.53885E-06  2722   0.221E-03    0.544E-01
RMM:  45    -0.232132535070E+04   -0.15931E-05   -0.14272E-06  2282   0.139E-03
  16 F= -.23427663E+04 E0= -.23427647E+04  d E =-.334543E-02  mag=     4.1720
       N       E                     dE             d eps       ncg     rms          rms(c)
DAV:   1    -0.232134016681E+04   -0.14818E-01   -0.12298E+00  4520   0.575E-01    0.678E-01
RMM:   2    -0.232134371179E+04   -0.35450E-02   -0.16443E-02  5060   0.662E-02    0.553E-01
RMM:   3    -0.232134780944E+04   -0.40977E-02   -0.66071E-03  5000   0.440E-02    0.946E-01
RMM:   4    -0.232134842760E+04   -0.61816E-03   -0.75283E-04  4168   0.140E-02    0.979E-01
RMM:   5    -0.232134531805E+04    0.31096E-02   -0.76628E-03  5186   0.353E-02    0.738E-01
RMM:   6    -0.232133982795E+04    0.54901E-02   -0.53452E-03  5728   0.328E-02    0.626E-01
RMM:   7    -0.232133135522E+04    0.84727E-02   -0.69977E-03  4715   0.362E-02    0.963E-01
RMM:   8    -0.232132972973E+04    0.16255E-02   -0.64974E-04  4025   0.179E-02    0.103E+00
RMM:   9    -0.232134229325E+04   -0.12564E-01   -0.92885E-03  4582   0.441E-02    0.560E-01
RMM:  10    -0.232134390750E+04   -0.16143E-02   -0.26991E-03  4517   0.301E-02    0.466E-01
RMM:  11    -0.232134570950E+04   -0.18020E-02   -0.18694E-03  4983   0.206E-02    0.560E-01
RMM:  12    -0.232134548101E+04    0.22850E-03   -0.88695E-05  3213   0.861E-03    0.533E-01
RMM:  13    -0.232134463677E+04    0.84423E-03   -0.23395E-04  3426   0.735E-03    0.487E-01
RMM:  14    -0.232134116722E+04    0.34696E-02   -0.38395E-03  4537   0.272E-02    0.527E-01
RMM:  15    -0.232133696480E+04    0.42024E-02   -0.29119E-03  4375   0.272E-02    0.751E-01
RMM:  16    -0.232133858894E+04   -0.16241E-02   -0.18870E-04  3301   0.779E-03    0.662E-01
RMM:  17    -0.232134144707E+04   -0.28581E-02   -0.12314E-03  4239   0.162E-02    0.511E-01
RMM:  18    -0.232134443746E+04   -0.29904E-02   -0.24059E-03  4639   0.237E-02    0.458E-01
RMM:  19    -0.232134810336E+04   -0.36659E-02   -0.28297E-03  4785   0.247E-02    0.640E-01
RMM:  20    -0.232134887103E+04   -0.76767E-03   -0.42969E-04  3710   0.115E-02    0.683E-01
RMM:  21    -0.232134923006E+04   -0.35903E-03   -0.12033E-04  3101   0.501E-03    0.714E-01
RMM:  22    -0.232134926470E+04   -0.34636E-04   -0.75664E-06  2861   0.309E-03    0.717E-01
RMM:  23    -0.232134866460E+04    0.60010E-03   -0.30552E-05  2693   0.293E-03    0.675E-01
RMM:  24    -0.232134681720E+04    0.18474E-02   -0.41366E-04  3713   0.892E-03    0.546E-01
RMM:  25    -0.232134371693E+04    0.31003E-02   -0.19729E-03  4417   0.199E-02    0.426E-01
RMM:  26    -0.232134269901E+04    0.10179E-02   -0.53207E-04  3776   0.126E-02    0.438E-01
RMM:  27    -0.232134211393E+04    0.58508E-03   -0.20829E-04  3395   0.638E-03    0.450E-01
RMM:  28    -0.232134202808E+04    0.85843E-04   -0.15322E-05  2872   0.360E-03    0.452E-01
RMM:  29    -0.232134207380E+04   -0.45718E-04   -0.25700E-06  2578   0.160E-03    0.451E-01
RMM:  30    -0.232134109225E+04    0.98155E-03   -0.17210E-04  3262   0.601E-03    0.486E-01
RMM:  31    -0.232133882214E+04    0.22701E-02   -0.78020E-04  4218   0.122E-02    0.598E-01
RMM:  32    -0.232133824714E+04    0.57500E-03   -0.12530E-04  3107   0.629E-03    0.629E-01
RMM:  33    -0.232133845255E+04   -0.20541E-03   -0.13144E-05  2777   0.237E-03    0.618E-01
RMM:  34    -0.232134019005E+04   -0.17375E-02   -0.35042E-04  3428   0.795E-03    0.527E-01
RMM:  35    -0.232134404777E+04   -0.38577E-02   -0.28544E-03  4566   0.234E-02    0.431E-01
RMM:  36    -0.232134831074E+04   -0.42630E-02   -0.34811E-03  4571   0.277E-02    0.649E-01
RMM:  37    -0.232135333540E+04   -0.50247E-02   -0.24325E-03  4799   0.227E-02    0.101E+00
RMM:  38    -0.232135808752E+04   -0.47521E-02   -0.12710E-03  4402   0.165E-02    0.131E+00
RMM:  39    -0.232135815009E+04   -0.62570E-04   -0.13819E-04  3107   0.772E-03    0.131E+00
RMM:  40    -0.232135993214E+04   -0.17820E-02   -0.12043E-04  3171   0.512E-03    0.142E+00
RMM:  41    -0.232136033004E+04   -0.39790E-03   -0.17964E-05  2839   0.385E-03    0.144E+00
RMM:  42    -0.232136073329E+04   -0.40325E-03   -0.10858E-05  2676   0.204E-03    0.146E+00
RMM:  43    -0.232136047937E+04    0.25392E-03   -0.19287E-06  2485   0.192E-03    0.144E+00
RMM:  44    -0.232136006464E+04    0.41473E-03   -0.39220E-06  2233   0.122E-03    0.142E+00
RMM:  45    -0.232135953925E+04    0.52540E-03   -0.60682E-06  2391   0.142E-03    0.139E+00
RMM:  46    -0.232135722190E+04    0.23173E-02   -0.11913E-04  3061   0.485E-03    0.125E+00
RMM:  47    -0.232135500824E+04    0.22137E-02   -0.16898E-04  3246   0.587E-03    0.111E+00
RMM:  48    -0.232135390933E+04    0.10989E-02   -0.77616E-05  2930   0.429E-03    0.103E+00
RMM:  49    -0.232135068899E+04    0.32203E-02   -0.50733E-04  4033   0.970E-03    0.797E-01
RMM:  50    -0.232134896644E+04    0.17226E-02   -0.29493E-04  3362   0.893E-03    0.676E-01
RMM:  51    -0.232134751748E+04    0.14490E-02   -0.32145E-04  3819   0.817E-03    0.573E-01
RMM:  52    -0.232134652998E+04    0.98750E-03   -0.16381E-04  3266   0.695E-03    0.513E-01
RMM:  53    -0.232134432999E+04    0.22000E-02   -0.95695E-04  4408   0.138E-02    0.426E-01
RMM:  54    -0.232134288942E+04    0.14406E-02   -0.58319E-04  3899   0.125E-02    0.424E-01
RMM:  55    -0.232134264420E+04    0.24522E-03   -0.10351E-04  3095   0.558E-03    0.426E-01
RMM:  56    -0.232134206086E+04    0.58334E-03   -0.85049E-05  3089   0.493E-03    0.438E-01
RMM:  57    -0.232134154009E+04    0.52077E-03   -0.61058E-05  3001   0.479E-03    0.454E-01
[...]
RMM:  54    -0.232136813645E+04   -0.12610E-03   -0.77833E-06  2464   0.234E-03    0.898E-01
RMM:  55    -0.232136727348E+04    0.86297E-03   -0.35763E-05  2701   0.270E-03    0.834E-01
RMM:  56    -0.232136670117E+04    0.57231E-03   -0.32262E-05  2875   0.266E-03    0.793E-01
RMM:  57    -0.232136814852E+04   -0.14474E-02   -0.10187E-04  2972   0.451E-03    0.906E-01
RMM:  58    -0.232136908067E+04   -0.93214E-03   -0.64036E-05  2840   0.390E-03    0.970E-01
RMM:  59    -0.232136944765E+04   -0.36699E-03   -0.19958E-05  2594   0.266E-03    0.996E-01
RMM:  60    -0.232136933596E+04    0.11169E-03   -0.20878E-06  2138   0.156E-03    0.989E-01
RMM:  61    -0.232136955554E+04   -0.21957E-03   -0.32300E-06  1989   0.110E-03    0.101E+00
RMM:  62    -0.232136596047E+04    0.35951E-02   -0.69556E-04  3880   0.112E-02    0.725E-01
RMM:  63    -0.232136537003E+04    0.59044E-03   -0.12343E-04  2952   0.689E-03    0.696E-01
RMM:  64    -0.232136522301E+04    0.14702E-03   -0.34036E-05  2832   0.312E-03    0.680E-01
RMM:  65    -0.232136392778E+04    0.12952E-02   -0.19071E-04  3346   0.661E-03    0.579E-01
RMM:  66    -0.232136330571E+04    0.62207E-03   -0.91047E-05  2996   0.528E-03    0.540E-01
RMM:  67    -0.232136260159E+04    0.70412E-03   -0.11727E-04  3252   0.547E-03    0.492E-01
RMM:  68    -0.232136246603E+04    0.13556E-03   -0.15506E-05  2757   0.342E-03    0.485E-01
RMM:  69    -0.232136216758E+04    0.29846E-03   -0.24367E-05  2867   0.292E-03    0.466E-01
RMM:  70    -0.232136183151E+04    0.33607E-03   -0.26365E-05  2865   0.302E-03    0.449E-01
RMM:  71    -0.232136165973E+04    0.17178E-03   -0.12449E-05  2693   0.260E-03    0.442E-01
RMM:  72    -0.232136227642E+04   -0.61669E-03   -0.63774E-05  2765   0.378E-03    0.472E-01
RMM:  73    -0.232136197884E+04    0.29758E-03   -0.10491E-05  2451   0.230E-03    0.453E-01
RMM:  74    -0.232136195655E+04    0.22285E-04   -0.67652E-07  1399   0.795E-04    0.454E-01
RMM:  75    -0.232136183968E+04    0.11687E-03   -0.36819E-06  1938   0.112E-03    0.448E-01
RMM:  76    -0.232136178653E+04    0.53155E-04   -0.11041E-06  1565   0.913E-04    0.445E-01
RMM:  77    -0.232136093795E+04    0.84857E-03   -0.16363E-04  3187   0.567E-03    0.414E-01
RMM:  78    -0.232136050417E+04    0.43379E-03   -0.74835E-05  2967   0.453E-03    0.409E-01
RMM:  79    -0.232135983749E+04    0.66668E-03   -0.15055E-04  3237   0.592E-03    0.406E-01
RMM:  80    -0.232135960924E+04    0.22825E-03   -0.31275E-05  2879   0.373E-03    0.409E-01
RMM:  81    -0.232135854847E+04    0.10608E-02   -0.29619E-04  3623   0.817E-03    0.434E-01
RMM:  82    -0.232135545144E+04    0.30970E-02   -0.16813E-03  4452   0.182E-02    0.588E-01
RMM:  83    -0.232135130595E+04    0.41455E-02   -0.18489E-03  4367   0.198E-02    0.817E-01
RMM:  84    -0.232134749678E+04    0.38092E-02   -0.10949E-03  4320   0.155E-02    0.100E+00
RMM:  85    -0.232134554563E+04    0.19511E-02   -0.32309E-04  3565   0.890E-03    0.109E+00
RMM:  86    -0.232134515234E+04    0.39328E-03   -0.46070E-05  3005   0.447E-03    0.111E+00
RMM:  87    -0.232134646420E+04   -0.13119E-02   -0.53560E-05  2775   0.396E-03    0.105E+00
RMM:  88    -0.232134555170E+04    0.91250E-03   -0.22527E-05  2655   0.243E-03    0.109E+00
RMM:  89    -0.232134458058E+04    0.97112E-03   -0.35402E-05  2858   0.303E-03    0.113E+00
RMM:  90    -0.232134530628E+04   -0.72570E-03   -0.13186E-05  2571   0.225E-03    0.110E+00
RMM:  91    -0.232134607015E+04   -0.76388E-03   -0.22660E-05  2643   0.233E-03    0.106E+00
RMM:  92    -0.232134858990E+04   -0.25198E-02   -0.25628E-04  3361   0.699E-03    0.948E-01
RMM:  93    -0.232134901433E+04   -0.42443E-03   -0.30603E-05  2807   0.364E-03    0.930E-01
RMM:  94    -0.232135079724E+04   -0.17829E-02   -0.18702E-04  3336   0.623E-03    0.843E-01
RMM:  95    -0.232135232308E+04   -0.15258E-02   -0.16661E-04  3234   0.665E-03    0.765E-01
RMM:  96    -0.232135303678E+04   -0.71370E-03   -0.71076E-05  3031   0.494E-03    0.727E-01
RMM:  97    -0.232135413660E+04   -0.10998E-02   -0.12579E-04  3236   0.545E-03    0.667E-01
RMM:  98    -0.232135583761E+04   -0.17010E-02   -0.34581E-04  3548   0.846E-03    0.571E-01
RMM:  99    -0.232135789108E+04   -0.20535E-02   -0.76525E-04  4264   0.123E-02    0.466E-01
RMM: 100    -0.232135893879E+04   -0.10477E-02   -0.37677E-04  3547   0.968E-03    0.427E-01
RMM: 101    -0.232135965703E+04   -0.71824E-03   -0.20969E-04  3446   0.708E-03    0.414E-01
RMM: 102    -0.232136192792E+04   -0.22709E-02   -0.12683E-03  4459   0.160E-02    0.460E-01
RMM: 103    -0.232136282518E+04   -0.89726E-03   -0.34148E-04  3550   0.105E-02    0.505E-01
RMM: 104    -0.232136432893E+04   -0.15037E-02   -0.43926E-04  4082   0.961E-03    0.612E-01
RMM: 105    -0.232136583038E+04   -0.15015E-02   -0.27460E-04  3518   0.888E-03    0.726E-01
RMM: 106    -0.232136694365E+04   -0.11133E-02   -0.15189E-04  3280   0.683E-03    0.811E-01
RMM: 107    -0.232136983027E+04   -0.28866E-02   -0.47411E-04  3998   0.101E-02    0.103E+00
RMM: 108    -0.232137098377E+04   -0.11535E-02   -0.12147E-04  3057   0.689E-03    0.110E+00
RMM: 109    -0.232137044983E+04    0.53394E-03   -0.17777E-05  2860   0.354E-03    0.107E+00
RMM: 110    -0.232137224528E+04   -0.17955E-02   -0.10992E-04  3070   0.490E-03    0.119E+00
RMM: 111    -0.232137227032E+04   -0.25041E-04   -0.12445E-05  2690   0.345E-03    0.119E+00
RMM: 112    -0.232137104256E+04    0.12278E-02   -0.40885E-05  2728   0.292E-03    0.111E+00
RMM: 113    -0.232136989030E+04    0.11523E-02   -0.57514E-05  2911   0.338E-03    0.103E+00
RMM: 114    -0.232136890206E+04    0.98825E-03   -0.57816E-05  2907   0.335E-03    0.962E-01
RMM: 115    -0.232136700498E+04    0.18971E-02   -0.20611E-04  3311   0.616E-03    0.816E-01
RMM: 116    -0.232136447619E+04    0.25288E-02   -0.58398E-04  4088   0.107E-02    0.621E-01
RMM: 117    -0.232136322128E+04    0.12549E-02   -0.31552E-04  3441   0.903E-03    0.534E-01
RMM: 118    -0.232136214010E+04    0.10812E-02   -0.28045E-04  3732   0.803E-03    0.466E-01
RMM: 119    -0.232136139389E+04    0.74620E-03   -0.15949E-04  3259   0.716E-03    0.434E-01
RMM: 120    -0.232136060069E+04    0.79320E-03   -0.20043E-04  3496   0.720E-03    0.413E-01
RMM: 121    -0.232135988729E+04    0.71340E-03   -0.15887E-04  3241   0.697E-03    0.410E-01
RMM: 122    -0.232135974272E+04    0.14457E-03   -0.29258E-05  2923   0.423E-03    0.412E-01
RMM: 123    -0.232135981627E+04   -0.73555E-04   -0.40496E-06  2588   0.214E-03    0.411E-01
RMM: 124    -0.232135974059E+04    0.75683E-04   -0.23505E-06  2422   0.148E-03    0.410E-01
RMM: 125    -0.232135941187E+04    0.32872E-03   -0.27519E-05  2867   0.262E-03    0.414E-01
RMM: 126    -0.232135899173E+04    0.42015E-03   -0.47536E-05  2949   0.342E-03    0.423E-01
RMM: 127    -0.232135887117E+04    0.12055E-03   -0.11583E-05  2636   0.243E-03    0.426E-01
RMM: 128    -0.232135886808E+04    0.30945E-05   -0.17773E-06  2184   0.128E-03
  28 F= -.23427997E+04 E0= -.23427956E+04  d E =-.830620E-02  mag=     4.0691
       N       E                     dE             d eps       ncg     rms          rms(c)
DAV:   1    -0.232131265477E+04    0.46216E-01   -0.11639E+00  4520   0.530E-01    0.639E-01
RMM:   2    -0.232132334048E+04   -0.10686E-01   -0.31578E-02  5712   0.886E-02    0.954E-01
RMM:   3    -0.232131572340E+04    0.76171E-02   -0.93282E-03  5777   0.452E-02    0.787E-01
RMM:   4    -0.232131571510E+04    0.83047E-05   -0.10547E-03  3761   0.103E-02    0.796E-01
RMM:   5    -0.232131364332E+04    0.20718E-02   -0.24539E-03  5246   0.204E-02    0.601E-01
RMM:   6    -0.232131010814E+04    0.35352E-02   -0.53524E-03  5133   0.306E-02    0.602E-01
RMM:   7    -0.232130532082E+04    0.47873E-02   -0.37338E-03  4910   0.276E-02    0.705E-01
RMM:   8    -0.232129958543E+04    0.57354E-02   -0.27347E-03  4792   0.244E-02    0.963E-01
RMM:   9    -0.232131047467E+04   -0.10889E-01   -0.89558E-03  4689   0.417E-02    0.487E-01
RMM:  10    -0.232131235052E+04   -0.18758E-02   -0.24774E-03  4396   0.281E-02    0.452E-01
RMM:  11    -0.232131478689E+04   -0.24364E-02   -0.25636E-03  4897   0.227E-02    0.600E-01
RMM:  12    -0.232131381831E+04    0.96858E-03   -0.21084E-04  3393   0.112E-02    0.505E-01
RMM:  13    -0.232131250186E+04    0.13165E-02   -0.65688E-04  3940   0.116E-02    0.449E-01
RMM:  14    -0.232130931790E+04    0.31840E-02   -0.27925E-03  4445   0.242E-02    0.489E-01
RMM:  15    -0.232130777928E+04    0.15386E-02   -0.80702E-04  4016   0.152E-02    0.565E-01
RMM:  16    -0.232130902892E+04   -0.12496E-02   -0.14957E-04  3097   0.590E-03    0.505E-01
RMM:  17    -0.232131250467E+04   -0.34758E-02   -0.25348E-03  4487   0.218E-02    0.452E-01
RMM:  18    -0.232131546574E+04   -0.29611E-02   -0.20587E-03  4273   0.227E-02    0.607E-01
RMM:  19    -0.232131238638E+04    0.30794E-02   -0.12435E-03  4153   0.157E-02    0.435E-01
RMM:  20    -0.232130583500E+04    0.65514E-02   -0.78596E-03  4798   0.385E-02    0.679E-01
RMM:  21    -0.232129897782E+04    0.68572E-02   -0.41974E-03  4558   0.327E-02    0.103E+00
RMM:  22    -0.232129965960E+04   -0.68178E-03   -0.35700E-04  3570   0.834E-03    0.100E+00
RMM:  23    -0.232129939716E+04    0.26244E-03   -0.23786E-05  2955   0.367E-03    0.101E+00
RMM:  24    -0.232129934790E+04    0.49264E-04   -0.37689E-06  2712   0.223E-03    0.101E+00
RMM:  25    -0.232130053326E+04   -0.11854E-02   -0.68946E-05  2818   0.400E-03    0.947E-01
RMM:  26    -0.232130488429E+04   -0.43510E-02   -0.13611E-03  4480   0.161E-02    0.698E-01
RMM:  27    -0.232130746098E+04   -0.25767E-02   -0.99587E-04  4171   0.159E-02    0.544E-01
RMM:  28    -0.232130997307E+04   -0.25121E-02   -0.13267E-03  4765   0.165E-02    0.428E-01
RMM:  29    -0.232131238453E+04   -0.24115E-02   -0.15451E-03  4424   0.183E-02    0.414E-01
RMM:  30    -0.232131510080E+04   -0.27163E-02   -0.16554E-03  4589   0.190E-02    0.548E-01
RMM:  31    -0.232131814806E+04   -0.30473E-02   -0.12430E-03  4492   0.168E-02    0.767E-01
RMM:  32    -0.232131862127E+04   -0.47321E-03   -0.17572E-04  3155   0.769E-03    0.795E-01
RMM:  33    -0.232131900034E+04   -0.37907E-03   -0.50097E-05  2987   0.400E-03    0.828E-01
RMM:  34    -0.232131911883E+04   -0.11848E-03   -0.65065E-06  2845   0.285E-03    0.836E-01
RMM:  35    -0.232131913530E+04   -0.16471E-04   -0.18526E-06  2497   0.159E-03    0.839E-01
RMM:  36    -0.232131742651E+04    0.17088E-02   -0.18044E-04  3115   0.582E-03    0.711E-01
RMM:  37    -0.232131657413E+04    0.85238E-03   -0.10004E-04  2943   0.512E-03    0.653E-01
RMM:  38    -0.232131449231E+04    0.20818E-02   -0.60672E-04  4113   0.108E-02    0.508E-01
RMM:  39    -0.232131311149E+04    0.13808E-02   -0.44447E-04  3714   0.106E-02    0.444E-01
RMM:  40    -0.232131220457E+04    0.90692E-03   -0.30969E-04  3702   0.866E-03    0.421E-01
RMM:  41    -0.232131127174E+04    0.93284E-03   -0.25228E-04  3581   0.821E-03    0.417E-01
RMM:  42    -0.232131022734E+04    0.10444E-02   -0.31223E-04  3762   0.894E-03    0.436E-01
RMM:  43    -0.232130899873E+04    0.12286E-02   -0.37452E-04  3764   0.944E-03    0.484E-01
RMM:  44    -0.232130847430E+04    0.52442E-03   -0.10124E-04  3078   0.594E-03    0.509E-01
RMM:  45    -0.232130823104E+04    0.24326E-03   -0.27881E-05  2917   0.361E-03    0.521E-01
RMM:  46    -0.232130829005E+04   -0.59005E-04   -0.29221E-06  2623   0.237E-03    0.518E-01
RMM:  47    -0.232130836797E+04   -0.77919E-04   -0.15890E-06  2332   0.123E-03    0.513E-01
RMM:  48    -0.232130834220E+04    0.25767E-04   -0.41852E-07  2183   0.968E-04    0.514E-01
RMM:  49    -0.232130832942E+04    0.12774E-04   -0.18522E-07  1693   0.673E-04    0.515E-01
RMM:  50    -0.232130823555E+04    0.93878E-04   -0.14579E-06  1892   0.880E-04    0.519E-01
RMM:  51    -0.232130839764E+04   -0.16209E-03   -0.33423E-06  1806   0.107E-03    0.511E-01
RMM:  52    -0.232130849669E+04   -0.99046E-04   -0.20844E-06  1751   0.946E-04    0.508E-01
RMM:  53    -0.232130849385E+04    0.28316E-05   -0.14955E-07  1134   0.670E-04
  29 F= -.23427499E+04 E0= -.23427472E+04  d E =-.552033E-02  mag=     4.1365
       N       E                     dE             d eps       ncg     rms          rms(c)
DAV:   1    -0.232135299162E+04   -0.44495E-01   -0.56706E-01  4520   0.353E-01    0.529E-01
RMM:   2    -0.232135671921E+04   -0.37276E-02   -0.95008E-03  4881   0.501E-02    0.536E-01
RMM:   3    -0.232135753366E+04   -0.81445E-03   -0.22633E-03  4590   0.269E-02    0.626E-01
RMM:   4    -0.232135779204E+04   -0.25838E-03   -0.10829E-03  4615   0.145E-02    0.684E-01
RMM:   5    -0.232135478553E+04    0.30065E-02   -0.65583E-03  5050   0.342E-02    0.752E-01
RMM:   6    -0.232134474581E+04    0.10040E-01   -0.66343E-03  4782   0.390E-02    0.959E-01
RMM:   7    -0.232135880000E+04   -0.14054E-01   -0.23140E-02  4705   0.672E-02    0.691E-01
RMM:   8    -0.232135983097E+04   -0.10310E-02   -0.61948E-03  4633   0.448E-02    0.839E-01
RMM:   9    -0.232136684226E+04   -0.70113E-02   -0.59728E-03  5025   0.352E-02    0.152E+00
RMM:  10    -0.232135808977E+04    0.87525E-02   -0.86763E-03  4809   0.430E-02    0.527E-01
RMM:  11    -0.232135501289E+04    0.30769E-02   -0.60703E-03  4708   0.368E-02    0.405E-01
RMM:  12    -0.232135318086E+04    0.18320E-02   -0.20781E-03  4585   0.244E-02    0.468E-01
RMM:  13    -0.232135140254E+04    0.17783E-02   -0.96413E-04  4437   0.140E-02    0.559E-01
RMM:  14    -0.232134964586E+04    0.17567E-02   -0.44997E-04  3892   0.118E-02    0.650E-01
RMM:  15    -0.232134893099E+04    0.71486E-03   -0.10528E-04  3198   0.603E-03    0.687E-01
RMM:  16    -0.232135112383E+04   -0.21928E-02   -0.35978E-04  3468   0.904E-03    0.577E-01
RMM:  17    -0.232135422031E+04   -0.30965E-02   -0.15394E-03  4274   0.175E-02    0.443E-01
RMM:  18    -0.232135604263E+04   -0.18223E-02   -0.10488E-03  4060   0.158E-02    0.421E-01
RMM:  19    -0.232135653681E+04   -0.49418E-03   -0.23827E-04  3388   0.761E-03    0.427E-01
RMM:  20    -0.232135724909E+04   -0.71228E-03   -0.16228E-04  3255   0.639E-03    0.456E-01
RMM:  21    -0.232135660561E+04    0.64348E-03   -0.73304E-05  2927   0.497E-03    0.429E-01
RMM:  22    -0.232135476175E+04    0.18439E-02   -0.86917E-04  4044   0.127E-02    0.428E-01
RMM:  23    -0.232135290493E+04    0.18568E-02   -0.86524E-04  3946   0.144E-02    0.498E-01
RMM:  24    -0.232135500421E+04   -0.20993E-02   -0.64972E-04  3840   0.108E-02    0.428E-01
RMM:  25    -0.232135737765E+04   -0.23734E-02   -0.14625E-03  4306   0.172E-02    0.454E-01
RMM:  26    -0.232136111053E+04   -0.37329E-02   -0.23380E-03  4609   0.221E-02    0.692E-01
RMM:  27    -0.232136241364E+04   -0.13031E-02   -0.48544E-04  3739   0.117E-02    0.782E-01
RMM:  28    -0.232136249325E+04   -0.79616E-04   -0.90987E-05  3008   0.470E-03    0.790E-01
RMM:  29    -0.232136107824E+04    0.14150E-02   -0.13050E-04  3028   0.572E-03    0.681E-01
RMM:  30    -0.232136026012E+04    0.81812E-03   -0.88861E-05  2928   0.480E-03    0.621E-01
RMM:  31    -0.232136022063E+04    0.39489E-04   -0.11036E-05  2586   0.246E-03    0.617E-01
RMM:  32    -0.232135957821E+04    0.64242E-03   -0.50449E-05  2963   0.324E-03    0.564E-01
RMM:  33    -0.232135812497E+04    0.14532E-02   -0.30781E-04  3531   0.740E-03    0.466E-01
RMM:  34    -0.232135741620E+04    0.70877E-03   -0.15207E-04  3061   0.611E-03    0.430E-01
RMM:  35    -0.232135718841E+04    0.22779E-03   -0.43124E-05  2851   0.350E-03    0.419E-01
RMM:  36    -0.232135703973E+04    0.14868E-03   -0.10431E-05  2641   0.233E-03    0.412E-01
RMM:  37    -0.232135715578E+04   -0.11605E-03   -0.26204E-06  2365   0.159E-03    0.418E-01
RMM:  38    -0.232135716609E+04   -0.10310E-04   -0.38753E-07  1749   0.787E-04    0.418E-01
RMM:  39    -0.232135711963E+04    0.46463E-04   -0.35805E-07  1591   0.729E-04    0.417E-01
RMM:  40    -0.232135662604E+04    0.49359E-03   -0.51900E-05  2953   0.324E-03    0.402E-01
RMM:  41    -0.232135547072E+04    0.11553E-02   -0.33100E-04  3612   0.763E-03    0.391E-01
RMM:  42    -0.232135453689E+04    0.93383E-03   -0.27464E-04  3316   0.768E-03    0.410E-01
RMM:  43    -0.232135388630E+04    0.65060E-03   -0.15033E-04  3299   0.573E-03    0.433E-01
RMM:  44    -0.232135389760E+04   -0.11305E-04   -0.11603E-05  2827   0.317E-03    0.433E-01
RMM:  45    -0.232135390353E+04   -0.59249E-05   -0.21259E-06  2286   0.122E-03
  30 F= -.23427952E+04 E0= -.23427915E+04  d E =-.732480E-02  mag=     4.0760
       N       E                     dE             d eps       ncg     rms          rms(c)
DAV:   1    -0.232131904782E+04    0.34850E-01   -0.11251E+00  4480   0.509E-01    0.489E-01
RMM:   2    -0.232132336255E+04   -0.43147E-02   -0.11578E-02  5090   0.565E-02    0.524E-01
RMM:   3    -0.232132386870E+04   -0.50615E-03   -0.36240E-03  5279   0.309E-02    0.730E-01
RMM:   4    -0.232132376790E+04    0.10080E-03   -0.96049E-04  4370   0.127E-02    0.747E-01
RMM:   5    -0.232132164794E+04    0.21200E-02   -0.41328E-03  5400   0.257E-02    0.669E-01
RMM:   6    -0.232131463865E+04    0.70093E-02   -0.51138E-03  4650   0.328E-02    0.738E-01
RMM:   7    -0.232131385144E+04    0.78722E-03   -0.48963E-04  3872   0.148E-02    0.772E-01
RMM:   8    -0.232132127974E+04   -0.74283E-02   -0.81200E-03  4808   0.404E-02    0.494E-01
RMM:   9    -0.232132298709E+04   -0.17073E-02   -0.23538E-03  4607   0.259E-02    0.585E-01
RMM:  10    -0.232132485348E+04   -0.18664E-02   -0.19180E-03  4739   0.204E-02    0.696E-01
RMM:  11    -0.232133058559E+04   -0.57321E-02   -0.30254E-03  4502   0.269E-02    0.123E+00
RMM:  12    -0.232132438323E+04    0.62024E-02   -0.32892E-03  4420   0.265E-02    0.592E-01
RMM:  13    -0.232132223855E+04    0.21447E-02   -0.15613E-03  4085   0.183E-02    0.479E-01
RMM:  14    -0.232132028642E+04    0.19521E-02   -0.15013E-03  4496   0.183E-02    0.427E-01
RMM:  15    -0.232131919844E+04    0.10880E-02   -0.56767E-04  3925   0.119E-02    0.453E-01
RMM:  16    -0.232131855566E+04    0.64277E-03   -0.18691E-04  3360   0.724E-03    0.474E-01
RMM:  17    -0.232131800022E+04    0.55544E-03   -0.79273E-05  3102   0.550E-03    0.497E-01
RMM:  18    -0.232131787474E+04    0.12548E-03   -0.15637E-05  2933   0.365E-03    0.503E-01
RMM:  19    -0.232131926049E+04   -0.13858E-02   -0.31157E-04  3317   0.763E-03    0.451E-01
RMM:  20    -0.232132077902E+04   -0.15185E-02   -0.62453E-04  3943   0.113E-02    0.426E-01
RMM:  21    -0.232132333015E+04   -0.25511E-02   -0.15733E-03  4338   0.176E-02    0.516E-01
RMM:  22    -0.232132277963E+04    0.55052E-03   -0.89918E-05  3010   0.737E-03    0.476E-01
RMM:  23    -0.232132283436E+04   -0.54731E-04   -0.18722E-05  2794   0.247E-03    0.490E-01
RMM:  24    -0.232132176956E+04    0.10648E-02   -0.23374E-04  3296   0.665E-03    0.448E-01
RMM:  25    -0.232131963455E+04    0.21350E-02   -0.12065E-03  4340   0.150E-02    0.453E-01
RMM:  26    -0.232131749734E+04    0.21372E-02   -0.11612E-03  4141   0.163E-02    0.547E-01
RMM:  27    -0.232131830698E+04   -0.80965E-03   -0.82303E-05  2960   0.534E-03    0.508E-01
RMM:  28    -0.232131805313E+04    0.25386E-03   -0.16083E-05  2782   0.242E-03    0.515E-01
RMM:  29    -0.232131815385E+04   -0.10072E-03   -0.23954E-06  2325   0.133E-03    0.509E-01
RMM:  30    -0.232132002777E+04   -0.18739E-02   -0.75494E-04  4137   0.119E-02    0.437E-01
RMM:  31    -0.232132245571E+04   -0.24279E-02   -0.16148E-03  4427   0.188E-02    0.464E-01
RMM:  32    -0.232132740177E+04   -0.49461E-02   -0.35221E-03  4834   0.263E-02    0.796E-01
RMM:  33    -0.232133043619E+04   -0.30344E-02   -0.11435E-03  4279   0.174E-02    0.101E+00
RMM:  34    -0.232133068497E+04   -0.24878E-03   -0.20542E-04  3188   0.688E-03    0.102E+00
RMM:  35    -0.232133053830E+04    0.14667E-03   -0.14825E-05  2894   0.348E-03    0.102E+00
RMM:  36    -0.232133054496E+04   -0.66565E-05   -0.19287E-06  2633   0.156E-03
  31 F= -.23427714E+04 E0= -.23427580E+04  d E =-.268326E-01  mag=     3.6589
