       N       E                     dE             d eps       ncg     rms          rms(c)
DAV:   1     0.131401047243E+05    0.13140E+05   -0.84378E+05  4536   0.145E+03
DAV:   2    -0.100773825209E+04   -0.14148E+05   -0.13533E+05  4952   0.331E+02
DAV:   3    -0.248346762338E+04   -0.14757E+04   -0.14570E+04  5528   0.115E+02
DAV:   4    -0.253092288649E+04   -0.47455E+02   -0.47197E+02  6744   0.300E+01
DAV:   5    -0.253172395559E+04   -0.80107E+00   -0.79915E+00  6208   0.341E+00    0.170E+02
RMM:   6    -0.150014098250E+04    0.10316E+04   -0.19738E+03  4471   0.385E+01    0.734E+01
RMM:   7    -0.168196252344E+04   -0.18182E+03   -0.31054E+02  5315   0.147E+01    0.583E+01
RMM:   8    -0.171714357557E+04   -0.35181E+02   -0.85607E+01  5244   0.862E+00    0.470E+01
RMM:   9    -0.177164638302E+04   -0.54503E+02   -0.58746E+01  5053   0.756E+00    0.352E+01
RMM:  10    -0.190564918152E+04   -0.13400E+03   -0.69266E+01  5191   0.817E+00    0.267E+01
RMM:  11    -0.197490134692E+04   -0.69252E+02   -0.27374E+01  4908   0.485E+00    0.239E+01
RMM:  12    -0.205568764561E+04   -0.80786E+02   -0.31432E+01  5038   0.450E+00    0.175E+01
RMM:  13    -0.212347128015E+04   -0.67784E+02   -0.29848E+01  5332   0.436E+00    0.162E+01
RMM:  14    -0.222638763895E+04   -0.10292E+03   -0.73741E+01  4467   0.633E+00    0.141E+01
RMM:  15    -0.228181166448E+04   -0.55424E+02   -0.43567E+01  4829   0.498E+00    0.760E+00
RMM:  16    -0.231207889796E+04   -0.30267E+02   -0.29230E+01  4654   0.380E+00    0.508E+00
RMM:  17    -0.232053066704E+04   -0.84518E+01   -0.93059E+00  4962   0.237E+00    0.361E+00
RMM:  18    -0.232327984566E+04   -0.27492E+01   -0.27695E+00  5361   0.102E+00    0.243E+00
RMM:  19    -0.232410435262E+04   -0.82451E+00   -0.65858E-01  5058   0.484E-01    0.235E+00
RMM:  20    -0.232424045034E+04   -0.13610E+00   -0.18094E-01  5459   0.206E-01    0.211E+00
RMM:  21    -0.232518794439E+04   -0.94749E+00   -0.67128E-01  4482   0.434E-01    0.109E+00
RMM:  22    -0.232536522773E+04   -0.17728E+00   -0.10786E-01  4549   0.251E-01    0.550E-01
RMM:  23    -0.232548728517E+04   -0.12206E+00   -0.58562E-02  4668   0.149E-01    0.398E-01
RMM:  24    -0.232552593608E+04   -0.38651E-01   -0.16952E-02  4801   0.106E-01    0.276E-01
RMM:  25    -0.232554514677E+04   -0.19211E-01   -0.99664E-03  4626   0.653E-02    0.160E-01
RMM:  26    -0.232555455334E+04   -0.94066E-02   -0.30279E-03  4726   0.491E-02    0.860E-02
RMM:  27    -0.232556212403E+04   -0.75707E-02   -0.16738E-03  4537   0.275E-02    0.578E-02
RMM:  28    -0.232556824612E+04   -0.61221E-02   -0.10692E-03  4141   0.254E-02    0.404E-02
RMM:  29    -0.232557306329E+04   -0.48172E-02   -0.11830E-03  4253   0.223E-02    0.279E-02
RMM:  30    -0.232557484177E+04   -0.17785E-02   -0.49914E-04  4144   0.190E-02    0.151E-02
RMM:  31    -0.232557547462E+04   -0.63285E-03   -0.21735E-04  4029   0.950E-03    0.974E-03
RMM:  32    -0.232557561327E+04   -0.13865E-03   -0.34336E-05  3303   0.722E-03    0.634E-03
RMM:  33    -0.232557573122E+04   -0.11795E-03   -0.24141E-05  3123   0.369E-03    0.333E-03
RMM:  34    -0.232557577259E+04   -0.41366E-04   -0.86431E-06  2873   0.347E-03    0.208E-03
RMM:  35    -0.232557578404E+04   -0.11459E-04   -0.45063E-06  2644   0.241E-03    0.126E-03
RMM:  36    -0.232557578810E+04   -0.40573E-05   -0.24500E-06  2507   0.193E-03
   1 F= -.23469659E+04 E0= -.23469625E+04  d E =-.234697E+04  mag=     2.9532
       N       E                     dE             d eps       ncg     rms          rms(c)
DAV:   1    -0.232554826185E+04    0.27522E-01   -0.40982E+01  4832   0.503E+00    0.224E+00
RMM:   2    -0.232641881831E+04   -0.87056E+00   -0.77882E+00  6647   0.140E+00    0.499E+00
RMM:   3    -0.232625974093E+04    0.15908E+00   -0.84843E-01  6396   0.513E-01    0.151E+00
RMM:   4    -0.232623801656E+04    0.21724E-01   -0.94985E-02  6382   0.132E-01    0.106E+00
RMM:   5    -0.232623745080E+04    0.56576E-03   -0.88779E-03  5250   0.410E-02    0.130E+00
RMM:   6    -0.232623682470E+04    0.62610E-03   -0.54121E-03  5428   0.338E-02    0.952E-01
RMM:   7    -0.232623462962E+04    0.21951E-02   -0.92562E-03  5930   0.418E-02    0.635E-01
RMM:   8    -0.232623327368E+04    0.13559E-02   -0.15230E-02  6082   0.596E-02    0.678E-01
RMM:   9    -0.232622967809E+04    0.35956E-02   -0.61613E-03  5891   0.377E-02    0.344E-01
RMM:  10    -0.232622878976E+04    0.88833E-03   -0.17058E-03  5380   0.195E-02    0.172E-01
RMM:  11    -0.232622868483E+04    0.10493E-03   -0.69357E-04  4335   0.142E-02    0.114E-01
RMM:  12    -0.232622862944E+04    0.55392E-04   -0.23769E-04  4135   0.101E-02    0.123E-01
RMM:  13    -0.232622850988E+04    0.11956E-03   -0.13792E-04  3437   0.777E-03    0.136E-01
RMM:  14    -0.232622840131E+04    0.10857E-03   -0.50420E-05  2974   0.535E-03    0.148E-01
RMM:  15    -0.232622855657E+04   -0.15527E-03   -0.52658E-05  2927   0.475E-03    0.129E-01
RMM:  16    -0.232622870225E+04   -0.14568E-03   -0.13995E-04  3028   0.547E-03    0.107E-01
RMM:  17    -0.232622896769E+04   -0.26544E-03   -0.55372E-04  4213   0.985E-03    0.112E-01
RMM:  18    -0.232622912890E+04   -0.16121E-03   -0.20369E-04  3107   0.754E-03    0.139E-01
RMM:  19    -0.232622889910E+04    0.22980E-03   -0.23649E-04  3100   0.735E-03    0.103E-01
RMM:  20    -0.232622865629E+04    0.24281E-03   -0.42971E-04  3953   0.914E-03    0.110E-01
RMM:  21    -0.232622827936E+04    0.37693E-03   -0.55344E-04  3817   0.105E-02    0.162E-01
RMM:  22    -0.232622858615E+04   -0.30679E-03   -0.18179E-04  3041   0.679E-03    0.118E-01
RMM:  23    -0.232622893301E+04   -0.34686E-03   -0.61582E-04  4316   0.103E-02    0.102E-01
RMM:  24    -0.232622948393E+04   -0.55093E-03   -0.94027E-04  4345   0.136E-02    0.177E-01
RMM:  25    -0.232623018898E+04   -0.70505E-03   -0.63323E-04  4093   0.110E-02    0.297E-01
RMM:  26    -0.232622973491E+04    0.45407E-03   -0.11599E-04  2947   0.636E-03    0.215E-01
RMM:  27    -0.232622981700E+04   -0.82090E-04   -0.76173E-06  2666   0.268E-03    0.238E-01
RMM:  28    -0.232622948347E+04    0.33353E-03   -0.12676E-04  2914   0.492E-03    0.180E-01
RMM:  29    -0.232622906821E+04    0.41527E-03   -0.44417E-04  4024   0.866E-03    0.123E-01
RMM:  30    -0.232622882704E+04    0.24117E-03   -0.34019E-04  3300   0.843E-03    0.112E-01
RMM:  31    -0.232622874359E+04    0.83449E-04   -0.95057E-05  2931   0.519E-03    0.114E-01
RMM:  32    -0.232622874406E+04   -0.46857E-06   -0.93834E-06  2660   0.293E-03
   2 F= -.23476152E+04 E0= -.23476094E+04  d E =-.649228E+00  mag=     2.9162
       N       E                     dE             d eps       ncg     rms          rms(c)
DAV:   1    -0.232515098909E+04    0.10778E+01   -0.86725E+01  4576   0.730E+00    0.367E+00
RMM:   2    -0.232750604601E+04   -0.23551E+01   -0.17999E+01  6659   0.226E+00    0.919E+00
RMM:   3    -0.232671770516E+04    0.78834E+00   -0.18258E+00  5948   0.797E-01    0.245E+00
RMM:   4    -0.232670664725E+04    0.11058E-01   -0.25388E-01  5980   0.217E-01    0.271E+00
RMM:   5    -0.232669572145E+04    0.10926E-01   -0.26410E-02  5466   0.798E-02    0.247E+00
RMM:   6    -0.232668463627E+04    0.11085E-01   -0.41533E-02  5336   0.948E-02    0.203E+00
RMM:   7    -0.232664863429E+04    0.36002E-01   -0.82845E-02  5632   0.141E-01    0.188E+00
RMM:   8    -0.232663046575E+04    0.18169E-01   -0.39953E-02  5965   0.106E-01    0.698E-01
RMM:   9    -0.232663655007E+04   -0.60843E-02   -0.14447E-02  4843   0.617E-02    0.326E-01
RMM:  10    -0.232667846012E+04   -0.41910E-01   -0.96576E-03  4511   0.557E-02    0.243E-01
RMM:  11    -0.232671081668E+04   -0.32357E-01   -0.63284E-03  4579   0.475E-02    0.228E-01
RMM:  12    -0.232672888560E+04   -0.18069E-01   -0.34282E-03  4818   0.371E-02    0.229E-01
RMM:  13    -0.232674205258E+04   -0.13167E-01   -0.30354E-03  4538   0.324E-02    0.210E-01
RMM:  14    -0.232675045476E+04   -0.84022E-02   -0.31695E-03  4556   0.341E-02    0.192E-01
RMM:  15    -0.232675416720E+04   -0.37124E-02   -0.28525E-03  4785   0.293E-02    0.158E-01
RMM:  16    -0.232675523855E+04   -0.10713E-02   -0.29891E-03  4920   0.267E-02    0.102E-01
RMM:  17    -0.232675568092E+04   -0.44237E-03   -0.68231E-04  4268   0.160E-02    0.509E-02
RMM:  18    -0.232675607940E+04   -0.39848E-03   -0.55395E-04  4378   0.116E-02    0.225E-02
RMM:  19    -0.232675639483E+04   -0.31543E-03   -0.78471E-05  3447   0.738E-03    0.206E-02
RMM:  20    -0.232675647890E+04   -0.84071E-04   -0.96086E-05  3168   0.566E-03    0.999E-03
RMM:  21    -0.232675652644E+04   -0.47533E-04   -0.12544E-05  2891   0.382E-03    0.613E-03
RMM:  22    -0.232675655250E+04   -0.26060E-04   -0.80864E-06  2722   0.271E-03    0.404E-03
RMM:  23    -0.232675656731E+04   -0.14814E-04   -0.47642E-06  2666   0.252E-03    0.259E-03
RMM:  24    -0.232675657461E+04   -0.73011E-05   -0.26665E-06  2529   0.197E-03
   3 F= -.23481337E+04 E0= -.23481337E+04  d E =-.116775E+01  mag=     1.0001
       N       E                     dE             d eps       ncg     rms          rms(c)
DAV:   1    -0.232659672259E+04    0.15984E+00   -0.44356E+01  4528   0.636E+00    0.264E+00
RMM:   2    -0.232709407117E+04   -0.49735E+00   -0.44085E+00  6206   0.148E+00    0.366E+00
RMM:   3    -0.232700841183E+04    0.85659E-01   -0.45139E-01  6060   0.565E-01    0.246E+00
RMM:   4    -0.232693451923E+04    0.73893E-01   -0.64320E-02  5489   0.175E-01    0.680E-01
RMM:   5    -0.232693433780E+04    0.18143E-03   -0.27603E-02  6020   0.126E-01    0.780E-01
RMM:   6    -0.232692618603E+04    0.81518E-02   -0.15851E-02  6089   0.789E-02    0.398E-01
RMM:   7    -0.232692515789E+04    0.10281E-02   -0.52745E-03  5873   0.507E-02    0.326E-01
RMM:   8    -0.232692358925E+04    0.15686E-02   -0.17947E-03  5802   0.241E-02    0.115E-01
RMM:   9    -0.232692322932E+04    0.35993E-03   -0.56424E-04  4962   0.155E-02    0.551E-02
RMM:  10    -0.232692308018E+04    0.14914E-03   -0.30098E-04  4965   0.129E-02    0.304E-02
RMM:  11    -0.232692302684E+04    0.53337E-04   -0.11740E-04  4482   0.967E-03    0.227E-02
RMM:  12    -0.232692300864E+04    0.18202E-04   -0.78938E-05  4054   0.695E-03    0.118E-02
RMM:  13    -0.232692301072E+04   -0.20831E-05   -0.26439E-05  3086   0.596E-03
   4 F= -.23482980E+04 E0= -.23482979E+04  d E =-.164320E+00  mag=     1.0000
       N       E                     dE             d eps       ncg     rms          rms(c)
DAV:   1    -0.232692222974E+04    0.77890E-03   -0.27124E+00  4672   0.157E+00    0.644E-01
RMM:   2    -0.232694978356E+04   -0.27554E-01   -0.26193E-01  6192   0.355E-01    0.815E-01
RMM:   3    -0.232694831103E+04    0.14725E-02   -0.28017E-02  6090   0.138E-01    0.658E-01
RMM:   4    -0.232694312753E+04    0.51835E-02   -0.42789E-03  5474   0.445E-02    0.183E-01
RMM:   5    -0.232694300533E+04    0.12221E-03   -0.19780E-03  5600   0.319E-02    0.197E-01
RMM:   6    -0.232694240519E+04    0.60013E-03   -0.10729E-03  5383   0.215E-02    0.722E-02
RMM:   7    -0.232694238167E+04    0.23521E-04   -0.28297E-04  4403   0.144E-02    0.731E-02
RMM:   8    -0.232694229554E+04    0.86133E-04   -0.90320E-05  3429   0.595E-03    0.211E-02
RMM:   9    -0.232694227287E+04    0.22674E-04   -0.26723E-05  2992   0.492E-03    0.109E-02
RMM:  10    -0.232694226236E+04    0.10500E-04   -0.19695E-05  2971   0.470E-03    0.527E-03
RMM:  11    -0.232694226036E+04    0.20068E-05   -0.90907E-06  2856   0.431E-03
   5 F= -.23483176E+04 E0= -.23483176E+04  d E =-.183912E+00  mag=     1.0000
       N       E                     dE             d eps       ncg     rms          rms(c)
DAV:   1    -0.232673172454E+04    0.21054E+00   -0.19323E+01  4528   0.394E+00    0.136E+00
RMM:   2    -0.232707780069E+04   -0.34608E+00   -0.35896E+00  6611   0.105E+00    0.138E+00
RMM:   3    -0.232710886962E+04   -0.31069E-01   -0.39797E-01  6397   0.379E-01    0.147E+00
RMM:   4    -0.232708633257E+04    0.22537E-01   -0.36694E-02  6397   0.955E-02    0.610E-01
RMM:   5    -0.232708453336E+04    0.17992E-02   -0.77622E-03  6022   0.415E-02    0.472E-01
RMM:   6    -0.232708158179E+04    0.29516E-02   -0.52406E-03  5912   0.426E-02    0.208E-01
RMM:   7    -0.232708113853E+04    0.44326E-03   -0.25560E-03  5609   0.302E-02    0.707E-02
RMM:   8    -0.232708109578E+04    0.42750E-04   -0.24583E-04  4307   0.135E-02    0.635E-02
RMM:   9    -0.232708105312E+04    0.42660E-04   -0.13348E-04  3173   0.765E-03    0.396E-02
RMM:  10    -0.232708102986E+04    0.23258E-04   -0.73755E-05  3078   0.630E-03    0.169E-02
RMM:  11    -0.232708102993E+04   -0.69776E-07   -0.30804E-05  2978   0.500E-03
   6 F= -.23484566E+04 E0= -.23484565E+04  d E =-.138967E+00  mag=     1.0000
       N       E                     dE             d eps       ncg     rms          rms(c)
DAV:   1    -0.232695819450E+04    0.12284E+00   -0.84282E+00  4528   0.258E+00    0.898E-01
RMM:   2    -0.232710540099E+04   -0.14721E+00   -0.15215E+00  6630   0.682E-01    0.928E-01
RMM:   3    -0.232711779051E+04   -0.12390E-01   -0.16917E-01  6388   0.247E-01    0.915E-01
RMM:   4    -0.232710888213E+04    0.89084E-02   -0.15992E-02  6331   0.624E-02    0.412E-01
RMM:   5    -0.232710792091E+04    0.96122E-03   -0.31167E-03  5731   0.269E-02    0.300E-01
RMM:   6    -0.232710672716E+04    0.11937E-02   -0.22690E-03  5789   0.288E-02    0.138E-01
RMM:   7    -0.232710664835E+04    0.78814E-04   -0.11828E-03  5597   0.208E-02    0.976E-02
RMM:   8    -0.232710653216E+04    0.11619E-03   -0.29748E-04  3745   0.105E-02    0.495E-02
RMM:   9    -0.232710649535E+04    0.36803E-04   -0.53044E-05  3015   0.635E-03    0.229E-02
RMM:  10    -0.232710648933E+04    0.60266E-05   -0.41905E-05  2971   0.475E-03
   7 F= -.23484823E+04 E0= -.23484823E+04  d E =-.164740E+00  mag=     1.0000
       N       E                     dE             d eps       ncg     rms          rms(c)
DAV:   1    -0.232685099144E+04    0.25550E+00   -0.23256E+01  4504   0.442E+00    0.153E+00
RMM:   2    -0.232720542045E+04   -0.35443E+00   -0.36407E+00  6496   0.105E+00    0.165E+00
RMM:   3    -0.232722810096E+04   -0.22681E-01   -0.35952E-01  6370   0.376E-01    0.157E+00
RMM:   4    -0.232720048853E+04    0.27612E-01   -0.39229E-02  6353   0.104E-01    0.647E-01
RMM:   5    -0.232719908378E+04    0.14048E-02   -0.92303E-03  5995   0.485E-02    0.555E-01
RMM:   6    -0.232719506688E+04    0.40169E-02   -0.69766E-03  5513   0.487E-02    0.243E-01
RMM:   7    -0.232719497169E+04    0.95189E-04   -0.34138E-03  5711   0.377E-02    0.210E-01
RMM:   8    -0.232719434677E+04    0.62491E-03   -0.90842E-04  5539   0.176E-02    0.634E-02
RMM:   9    -0.232719430265E+04    0.44123E-04   -0.17174E-04  3766   0.799E-03    0.411E-02
RMM:  10    -0.232719429828E+04    0.43691E-05   -0.10774E-04  3488   0.732E-03    0.222E-02
RMM:  11    -0.232719431461E+04   -0.16328E-04   -0.59170E-05  3216   0.611E-03    0.159E-02
RMM:  12    -0.232719432631E+04   -0.11697E-04   -0.18120E-05  2948   0.471E-03    0.943E-03
RMM:  13    -0.232719433753E+04   -0.11225E-04   -0.17863E-05  2943   0.391E-03    0.463E-03
RMM:  14    -0.232719434186E+04   -0.43253E-05   -0.71712E-06  2895   0.337E-03
   8 F= -.23485730E+04 E0= -.23485729E+04  d E =-.906230E-01  mag=     1.0000
       N       E                     dE             d eps       ncg     rms          rms(c)
DAV:   1    -0.232718662722E+04    0.77103E-02   -0.62454E-01  4672   0.723E-01    0.252E-01
RMM:   2    -0.232719618834E+04   -0.95611E-02   -0.96569E-02  6477   0.173E-01    0.294E-01
RMM:   3    -0.232719651716E+04   -0.32882E-03   -0.96776E-03  6129   0.627E-02    0.235E-01
RMM:   4    -0.232719591371E+04    0.60345E-03   -0.10637E-03  5183   0.170E-02    0.110E-01
RMM:   5    -0.232719586033E+04    0.53379E-04   -0.24083E-04  3102   0.894E-03    0.884E-02
RMM:   6    -0.232719575220E+04    0.10813E-03   -0.21240E-04  4360   0.100E-02    0.331E-02
RMM:   7    -0.232719574935E+04    0.28560E-05   -0.64135E-05  3128   0.730E-03
   9 F= -.23485748E+04 E0= -.23485748E+04  d E =-.924888E-01  mag=     1.0000
       N       E                     dE             d eps       ncg     rms          rms(c)
DAV:   1    -0.232685209489E+04    0.34366E+00   -0.22498E+01  4504   0.420E+00    0.152E+00
RMM:   2    -0.232727569885E+04   -0.42360E+00   -0.43806E+00  6534   0.104E+00    0.166E+00
RMM:   3    -0.232730970849E+04   -0.34010E-01   -0.46617E-01  6353   0.392E-01    0.164E+00
RMM:   4    -0.232727833078E+04    0.31378E-01   -0.46589E-02  6542   0.102E-01    0.552E-01
RMM:   5    -0.232727681845E+04    0.15123E-02   -0.10065E-02  6075   0.465E-02    0.521E-01
RMM:   6    -0.232727451389E+04    0.23046E-02   -0.75052E-03  6058   0.426E-02    0.391E-01
RMM:   7    -0.232727378379E+04    0.73010E-03   -0.41872E-03  6013   0.334E-02    0.263E-01
RMM:   8    -0.232727288888E+04    0.89491E-03   -0.10445E-03  5475   0.187E-02    0.774E-02
RMM:   9    -0.232727283454E+04    0.54340E-04   -0.21769E-04  4111   0.906E-03    0.514E-02
RMM:  10    -0.232727280616E+04    0.28383E-04   -0.13963E-04  3357   0.795E-03    0.188E-02
RMM:  11    -0.232727280948E+04   -0.33183E-05   -0.38683E-05  3014   0.522E-03
  10 F= -.23486540E+04 E0= -.23486539E+04  d E =-.791268E-01  mag=     1.0000
       N       E                     dE             d eps       ncg     rms          rms(c)
DAV:   1    -0.232720461751E+04    0.68189E-01   -0.40542E+00  4528   0.178E+00    0.639E-01
RMM:   2    -0.232728039039E+04   -0.75773E-01   -0.77979E-01  6530   0.441E-01    0.741E-01
RMM:   3    -0.232728530452E+04   -0.49141E-02   -0.79513E-02  6354   0.164E-01    0.662E-01
RMM:   4    -0.232728033817E+04    0.49664E-02   -0.81995E-03  6190   0.429E-02    0.243E-01
RMM:   5    -0.232728017720E+04    0.16097E-03   -0.17503E-03  5220   0.195E-02    0.248E-01
RMM:   6    -0.232727961164E+04    0.56556E-03   -0.14652E-03  5733   0.201E-02    0.163E-01
RMM:   7    -0.232727939543E+04    0.21621E-03   -0.75576E-04  5174   0.151E-02    0.878E-02
RMM:   8    -0.232727929220E+04    0.10323E-03   -0.13464E-04  3496   0.769E-03    0.300E-02
RMM:   9    -0.232727928195E+04    0.10245E-04   -0.32597E-05  3004   0.545E-03    0.167E-02
RMM:  10    -0.232727928008E+04    0.18718E-05   -0.18992E-05  2952   0.380E-03
  11 F= -.23486614E+04 E0= -.23486613E+04  d E =-.865301E-01  mag=     1.0000
       N       E                     dE             d eps       ncg     rms          rms(c)
DAV:   1    -0.232683053080E+04    0.44875E+00   -0.21579E+01  4504   0.385E+00    0.147E+00
RMM:   2    -0.232735225642E+04   -0.52173E+00   -0.53771E+00  6618   0.106E+00    0.176E+00
RMM:   3    -0.232738263373E+04   -0.30377E-01   -0.57470E-01  6415   0.406E-01    0.154E+00
RMM:   4    -0.232735616302E+04    0.26471E-01   -0.55180E-02  6478   0.977E-02    0.608E-01
RMM:   5    -0.232735387607E+04    0.22869E-02   -0.81069E-03  6144   0.412E-02    0.522E-01
RMM:   6    -0.232735126489E+04    0.26112E-02   -0.55714E-03  6076   0.344E-02    0.395E-01
RMM:   7    -0.232735036013E+04    0.90476E-03   -0.53882E-03  6082   0.350E-02    0.299E-01
RMM:   8    -0.232734940992E+04    0.95021E-03   -0.12966E-03  5537   0.185E-02    0.794E-02
RMM:   9    -0.232734935815E+04    0.51766E-04   -0.20477E-04  4113   0.945E-03    0.555E-02
RMM:  10    -0.232734932367E+04    0.34479E-04   -0.14122E-04  3253   0.801E-03    0.181E-02
RMM:  11    -0.232734933391E+04   -0.10241E-04   -0.26614E-05  2971   0.485E-03    0.114E-02
RMM:  12    -0.232734934387E+04   -0.99620E-05   -0.75408E-06  2893   0.311E-03
  12 F= -.23487336E+04 E0= -.23487336E+04  d E =-.721927E-01  mag=     1.0000
       N       E                     dE             d eps       ncg     rms          rms(c)
DAV:   1    -0.232708510558E+04    0.26423E+00   -0.11733E+01  4504   0.284E+00    0.107E+00
RMM:   2    -0.232736114164E+04   -0.27604E+00   -0.28729E+00  6626   0.774E-01    0.122E+00
RMM:   3    -0.232738236676E+04   -0.21225E-01   -0.31211E-01  6423   0.301E-01    0.115E+00
RMM:   4    -0.232736749612E+04    0.14871E-01   -0.29698E-02  6425   0.722E-02    0.432E-01
RMM:   5    -0.232736599438E+04    0.15017E-02   -0.44549E-03  5947   0.306E-02    0.339E-01
RMM:   6    -0.232736450827E+04    0.14861E-02   -0.37492E-03  5992   0.296E-02    0.223E-01
RMM:   7    -0.232736460453E+04   -0.96259E-04   -0.21844E-03  5782   0.229E-02    0.261E-01
RMM:   8    -0.232736391539E+04    0.68914E-03   -0.60675E-04  4589   0.127E-02    0.529E-02
RMM:   9    -0.232736388526E+04    0.30130E-04   -0.10835E-04  3234   0.674E-03    0.374E-02
RMM:  10    -0.232736387102E+04    0.14237E-04   -0.69133E-05  2979   0.595E-03    0.121E-02
RMM:  11    -0.232736388025E+04   -0.92232E-05   -0.14616E-05  2952   0.411E-03
  13 F= -.23487497E+04 E0= -.23487497E+04  d E =-.883666E-01  mag=     1.0000
       N       E                     dE             d eps       ncg     rms          rms(c)
DAV:   1    -0.232688678433E+04    0.47709E+00   -0.21459E+01  4496   0.419E+00    0.157E+00
RMM:   2    -0.232738907369E+04   -0.50229E+00   -0.53614E+00  6626   0.111E+00    0.136E+00
RMM:   3    -0.232744812965E+04   -0.59056E-01   -0.64365E-01  6428   0.457E-01    0.171E+00
RMM:   4    -0.232741665005E+04    0.31480E-01   -0.57051E-02  6630   0.103E-01    0.585E-01
RMM:   5    -0.232741591905E+04    0.73100E-03   -0.10240E-02  6141   0.449E-02    0.614E-01
RMM:   6    -0.232741196631E+04    0.39527E-02   -0.48311E-03  6095   0.338E-02    0.300E-01
RMM:   7    -0.232741065366E+04    0.13126E-02   -0.42292E-03  5293   0.342E-02    0.116E-01
RMM:   8    -0.232741055062E+04    0.10305E-03   -0.65131E-04  4779   0.231E-02    0.936E-02
RMM:   9    -0.232741045421E+04    0.96409E-04   -0.29647E-04  4423   0.991E-03    0.601E-02
RMM:  10    -0.232741038088E+04    0.73328E-04   -0.11653E-04  3180   0.802E-03    0.217E-02
RMM:  11    -0.232741037912E+04    0.17544E-05   -0.38613E-05  2998   0.522E-03
  14 F= -.23487992E+04 E0= -.23487992E+04  d E =-.494874E-01  mag=     1.0000
       N       E                     dE             d eps       ncg     rms          rms(c)
DAV:   1    -0.232740901684E+04    0.13640E-02   -0.57009E-02  5336   0.215E-01    0.790E-02
RMM:   2    -0.232741027549E+04   -0.12586E-02   -0.13801E-02  6565   0.578E-02    0.512E-02
RMM:   3    -0.232741042777E+04   -0.15228E-03   -0.14712E-03  3384   0.223E-02    0.753E-02
RMM:   4    -0.232741037680E+04    0.50979E-04   -0.15025E-04  2979   0.649E-03    0.294E-02
RMM:   5    -0.232741037002E+04    0.67804E-05   -0.23009E-05  2963   0.315E-03
  15 F= -.23487994E+04 E0= -.23487994E+04  d E =-.496301E-01  mag=     1.0000
       N       E                     dE             d eps       ncg     rms          rms(c)
DAV:   1    -0.232710355956E+04    0.30682E+00   -0.12608E+01  4516   0.306E+00    0.118E+00
RMM:   2    -0.232742624183E+04   -0.32268E+00   -0.35000E+00  6667   0.840E-01    0.839E-01
RMM:   3    -0.232745974292E+04   -0.33501E-01   -0.40780E-01  6422   0.345E-01    0.925E-01
RMM:   4    -0.232745328826E+04    0.64547E-02   -0.35601E-02  6570   0.734E-02    0.474E-01
RMM:   5    -0.232745173161E+04    0.15567E-02   -0.43044E-03  5840   0.292E-02    0.359E-01
RMM:   6    -0.232745066284E+04    0.10688E-02   -0.31109E-03  5858   0.272E-02    0.278E-01
RMM:   7    -0.232745065263E+04    0.10212E-04   -0.21021E-03  5671   0.218E-02    0.280E-01
RMM:   8    -0.232744974842E+04    0.90421E-03   -0.95146E-04  5469   0.161E-02    0.732E-02
RMM:   9    -0.232744968288E+04    0.65539E-04   -0.15211E-04  3514   0.786E-03    0.359E-02
RMM:  10    -0.232744965692E+04    0.25958E-04   -0.64110E-05  2969   0.640E-03    0.196E-02
RMM:  11    -0.232744965321E+04    0.37128E-05   -0.19958E-05  2925   0.453E-03
  16 F= -.23488413E+04 E0= -.23488413E+04  d E =-.419339E-01  mag=     1.0000
       N       E                     dE             d eps       ncg     rms          rms(c)
DAV:   1    -0.232733405752E+04    0.11560E+00   -0.44902E+00  4528   0.182E+00    0.694E-01
RMM:   2    -0.232744642899E+04   -0.11237E+00   -0.12275E+00  6664   0.493E-01    0.432E-01
RMM:   3    -0.232745811147E+04   -0.11682E-01   -0.13772E-01  6340   0.200E-01    0.489E-01
RMM:   4    -0.232745676151E+04    0.13500E-02   -0.12463E-02  6128   0.416E-02    0.281E-01
RMM:   5    -0.232745627659E+04    0.48492E-03   -0.14188E-03  5362   0.176E-02    0.226E-01
RMM:   6    -0.232745580675E+04    0.46984E-03   -0.10570E-03  5195   0.166E-02    0.162E-01
RMM:   7    -0.232745580580E+04    0.94912E-06   -0.71836E-04  4730   0.135E-02    0.162E-01
RMM:   8    -0.232745550743E+04    0.29837E-03   -0.29064E-04  4622   0.989E-03    0.418E-02
RMM:   9    -0.232745548467E+04    0.22751E-04   -0.49393E-05  3049   0.574E-03    0.182E-02
RMM:  10    -0.232745547977E+04    0.49037E-05   -0.18594E-05  2939   0.409E-03
  17 F= -.23488487E+04 E0= -.23488487E+04  d E =-.493145E-01  mag=     1.0000
       N       E                     dE             d eps       ncg     rms          rms(c)
DAV:   1    -0.232719987085E+04    0.25561E+00   -0.11017E+01  4504   0.289E+00    0.108E+00
RMM:   2    -0.232747447547E+04   -0.27460E+00   -0.29220E+00  6677   0.785E-01    0.979E-01
RMM:   3    -0.232750277620E+04   -0.28301E-01   -0.33481E-01  6450   0.318E-01    0.105E+00
RMM:   4    -0.232749293751E+04    0.98387E-02   -0.31878E-02  6517   0.731E-02    0.506E-01
RMM:   5    -0.232749120717E+04    0.17303E-02   -0.43563E-03  5791   0.272E-02    0.413E-01
RMM:   6    -0.232749016058E+04    0.10466E-02   -0.27568E-03  5681   0.245E-02    0.302E-01
RMM:   7    -0.232748939493E+04    0.76565E-03   -0.21469E-03  5679   0.234E-02    0.189E-01
RMM:   8    -0.232748906702E+04    0.32791E-03   -0.77069E-04  5328   0.149E-02    0.742E-02
RMM:   9    -0.232748902882E+04    0.38193E-04   -0.13962E-04  3409   0.928E-03    0.360E-02
RMM:  10    -0.232748902219E+04    0.66315E-05   -0.62394E-05  3037   0.592E-03
  18 F= -.23488840E+04 E0= -.23488840E+04  d E =-.353480E-01  mag=     1.0000
       N       E                     dE             d eps       ncg     rms          rms(c)
DAV:   1    -0.232734618473E+04    0.14284E+00   -0.56952E+00  4504   0.208E+00    0.767E-01
RMM:   2    -0.232748669274E+04   -0.14051E+00   -0.15035E+00  6655   0.563E-01    0.651E-01
RMM:   3    -0.232750258709E+04   -0.15894E-01   -0.17157E-01  6420   0.229E-01    0.774E-01
RMM:   4    -0.232749729063E+04    0.52965E-02   -0.16458E-02  6299   0.523E-02    0.351E-01
RMM:   5    -0.232749644592E+04    0.84470E-03   -0.22415E-03  5552   0.202E-02    0.290E-01
RMM:   6    -0.232749591259E+04    0.53333E-03   -0.13670E-03  5266   0.180E-02    0.212E-01
RMM:   7    -0.232749562833E+04    0.28427E-03   -0.10403E-03  5199   0.169E-02    0.158E-01
RMM:   8    -0.232749542344E+04    0.20488E-03   -0.39517E-04  4936   0.110E-02    0.617E-02
RMM:   9    -0.232749539967E+04    0.23774E-04   -0.88760E-05  3146   0.744E-03    0.265E-02
RMM:  10    -0.232749540125E+04   -0.15849E-05   -0.32863E-05  2949   0.474E-03
  19 F= -.23488917E+04 E0= -.23488917E+04  d E =-.430084E-01  mag=     1.0000
       N       E                     dE             d eps       ncg     rms          rms(c)
DAV:   1    -0.232727569973E+04    0.21970E+00   -0.10183E+01  4504   0.279E+00    0.986E-01
RMM:   2    -0.232750972036E+04   -0.23402E+00   -0.24707E+00  6633   0.741E-01    0.101E+00
RMM:   3    -0.232753612221E+04   -0.26402E-01   -0.28010E-01  6390   0.297E-01    0.113E+00
RMM:   4    -0.232752288110E+04    0.13241E-01   -0.26856E-02  6397   0.700E-02    0.410E-01
RMM:   5    -0.232752210900E+04    0.77210E-03   -0.41708E-03  5823   0.277E-02    0.420E-01
RMM:   6    -0.232752085622E+04    0.12528E-02   -0.23098E-03  5612   0.235E-02    0.247E-01
RMM:   7    -0.232752055520E+04    0.30101E-03   -0.18435E-03  5688   0.225E-02    0.215E-01
RMM:   8    -0.232752010743E+04    0.44778E-03   -0.69751E-04  5311   0.151E-02    0.694E-02
RMM:   9    -0.232752007044E+04    0.36985E-04   -0.13613E-04  3588   0.896E-03    0.366E-02
RMM:  10    -0.232752005754E+04    0.12899E-04   -0.56240E-05  3040   0.585E-03    0.150E-02
RMM:  11    -0.232752005757E+04   -0.24927E-07   -0.14104E-05  2952   0.429E-03
  20 F= -.23489173E+04 E0= -.23489172E+04  d E =-.255728E-01  mag=     1.0000
       N       E                     dE             d eps       ncg     rms          rms(c)
DAV:   1    -0.232748317127E+04    0.36886E-01   -0.16265E+00  4528   0.112E+00    0.391E-01
RMM:   2    -0.232752033822E+04   -0.37167E-01   -0.39443E-01  6618   0.295E-01    0.374E-01
RMM:   3    -0.232752481611E+04   -0.44779E-02   -0.42882E-02  6248   0.117E-01    0.465E-01
RMM:   4    -0.232752252946E+04    0.22866E-02   -0.42087E-03  5330   0.278E-02    0.150E-01
RMM:   5    -0.232752240464E+04    0.12482E-03   -0.68336E-04  4566   0.124E-02    0.143E-01
RMM:   6    -0.232752218867E+04    0.21597E-03   -0.38954E-04  4287   0.112E-02    0.724E-02
RMM:   7    -0.232752227737E+04   -0.88699E-04   -0.26558E-04  3684   0.982E-03    0.123E-01
RMM:   8    -0.232752214385E+04    0.13351E-03   -0.99616E-05  3186   0.729E-03    0.281E-02
RMM:   9    -0.232752213640E+04    0.74544E-05   -0.27064E-05  2969   0.493E-03
  21 F= -.23489197E+04 E0= -.23489197E+04  d E =-.280190E-01  mag=     1.0000
       N       E                     dE             d eps       ncg     rms          rms(c)
DAV:   1    -0.232731707223E+04    0.20507E+00   -0.94810E+00  4504   0.268E+00    0.953E-01
RMM:   2    -0.232753492824E+04   -0.21786E+00   -0.23173E+00  6685   0.717E-01    0.881E-01
RMM:   3    -0.232756451504E+04   -0.29587E-01   -0.26165E-01  6402   0.286E-01    0.118E+00
RMM:   4    -0.232754928897E+04    0.15226E-01   -0.24296E-02  6339   0.666E-02    0.332E-01
RMM:   5    -0.232754827006E+04    0.10189E-02   -0.31134E-03  5305   0.237E-02    0.221E-01
RMM:   6    -0.232754780694E+04    0.46312E-03   -0.22055E-03  5381   0.248E-02    0.125E-01
RMM:   7    -0.232754796154E+04   -0.15460E-03   -0.76539E-04  4717   0.179E-02    0.184E-01
RMM:   8    -0.232754771266E+04    0.24888E-03   -0.30162E-04  4027   0.899E-03    0.697E-02
RMM:   9    -0.232754770537E+04    0.72890E-05   -0.16828E-04  3079   0.788E-03    0.589E-02
RMM:  10    -0.232754765731E+04    0.48058E-04   -0.57145E-05  2989   0.535E-03    0.179E-02
RMM:  11    -0.232754765565E+04    0.16643E-05   -0.14658E-05  2932   0.324E-03
  22 F= -.23489461E+04 E0= -.23489460E+04  d E =-.263897E-01  mag=     1.0000
       N       E                     dE             d eps       ncg     rms          rms(c)
DAV:   1    -0.232720315989E+04    0.34450E+00   -0.14396E+01  4504   0.331E+00    0.118E+00
RMM:   2    -0.232753527637E+04   -0.33212E+00   -0.35588E+00  6687   0.884E-01    0.101E+00
RMM:   3    -0.232758288351E+04   -0.47607E-01   -0.40643E-01  6412   0.354E-01    0.144E+00
RMM:   4    -0.232756022356E+04    0.22660E-01   -0.37530E-02  6447   0.819E-02    0.430E-01
RMM:   5    -0.232755874649E+04    0.14771E-02   -0.47014E-03  5441   0.278E-02    0.292E-01
RMM:   6    -0.232755839634E+04    0.35015E-03   -0.35278E-03  5614   0.310E-02    0.277E-01
RMM:   7    -0.232755806269E+04    0.33364E-03   -0.15654E-03  5455   0.228E-02    0.201E-01
RMM:   8    -0.232755789725E+04    0.16545E-03   -0.77849E-04  4752   0.136E-02    0.141E-01
RMM:   9    -0.232755771963E+04    0.17762E-03   -0.32912E-04  3667   0.996E-03    0.593E-02
RMM:  10    -0.232755768240E+04    0.37228E-04   -0.93165E-05  3018   0.664E-03    0.232E-02
RMM:  11    -0.232755768397E+04   -0.15709E-05   -0.31616E-05  2969   0.435E-03
  23 F= -.23489572E+04 E0= -.23489571E+04  d E =-.375067E-01  mag=     1.0000
       N       E                     dE             d eps       ncg     rms          rms(c)
DAV:   1    -0.232744391318E+04    0.11377E+00   -0.55650E+00  4504   0.204E+00    0.766E-01
RMM:   2    -0.232756702088E+04   -0.12311E+00   -0.13269E+00  6659   0.550E-01    0.584E-01
RMM:   3    -0.232758406350E+04   -0.17043E-01   -0.14089E-01  6412   0.213E-01    0.894E-01
RMM:   4    -0.232757578511E+04    0.82784E-02   -0.14093E-02  6331   0.507E-02    0.247E-01
RMM:   5    -0.232757533164E+04    0.45348E-03   -0.15666E-03  5001   0.168E-02    0.188E-01
RMM:   6    -0.232757540411E+04   -0.72473E-04   -0.17260E-03  5716   0.220E-02    0.203E-01
RMM:   7    -0.232757503621E+04    0.36790E-03   -0.85459E-04  5344   0.158E-02    0.109E-01
RMM:   8    -0.232757503758E+04   -0.13662E-05   -0.27906E-04  3243   0.887E-03    0.986E-02
RMM:   9    -0.232757493816E+04    0.99413E-04   -0.81227E-05  3030   0.660E-03    0.306E-02
RMM:  10    -0.232757493102E+04    0.71409E-05   -0.31084E-05  2969   0.404E-03
  24 F= -.23489753E+04 E0= -.23489752E+04  d E =-.180957E-01  mag=     1.0000
       N       E                     dE             d eps       ncg     rms          rms(c)
DAV:   1    -0.232734942945E+04    0.22551E+00   -0.98356E+00  4504   0.272E+00    0.101E+00
RMM:   2    -0.232756783672E+04   -0.21841E+00   -0.23693E+00  6652   0.732E-01    0.704E-01
RMM:   3    -0.232759698540E+04   -0.29149E-01   -0.24280E-01  6416   0.277E-01    0.110E+00
RMM:   4    -0.232758430794E+04    0.12677E-01   -0.25107E-02  6513   0.662E-02    0.341E-01
RMM:   5    -0.232758331546E+04    0.99248E-03   -0.25808E-03  5230   0.216E-02    0.237E-01
RMM:   6    -0.232758419616E+04   -0.88070E-03   -0.28336E-03  5876   0.277E-02    0.400E-01
RMM:   7    -0.232758264966E+04    0.15465E-02   -0.15538E-03  5634   0.209E-02    0.842E-02
RMM:   8    -0.232758261765E+04    0.32009E-04   -0.27147E-04  3744   0.862E-03    0.571E-02
RMM:   9    -0.232758260923E+04    0.84210E-05   -0.12914E-04  3026   0.724E-03    0.519E-02
RMM:  10    -0.232758257864E+04    0.30587E-04   -0.50519E-05  2951   0.487E-03    0.192E-02
RMM:  11    -0.232758258427E+04   -0.56268E-05   -0.25571E-05  2969   0.379E-03
  25 F= -.23489841E+04 E0= -.23489841E+04  d E =-.269161E-01  mag=     1.0000
       N       E                     dE             d eps       ncg     rms          rms(c)
DAV:   1    -0.232754775325E+04    0.34825E-01   -0.26315E+00  4504   0.139E+00    0.525E-01
RMM:   2    -0.232759202333E+04   -0.44270E-01   -0.47747E-01  6537   0.347E-01    0.379E-01
RMM:   3    -0.232759891167E+04   -0.68883E-02   -0.48617E-02  6339   0.132E-01    0.666E-01
RMM:   4    -0.232759455428E+04    0.43574E-02   -0.55313E-03  6083   0.350E-02    0.157E-01
RMM:   5    -0.232759461091E+04   -0.56632E-04   -0.10395E-03  4924   0.161E-02    0.201E-01
RMM:   6    -0.232759435738E+04    0.25353E-03   -0.69085E-04  4746   0.145E-02    0.128E-01
RMM:   7    -0.232759425152E+04    0.10586E-03   -0.32237E-04  4390   0.104E-02    0.620E-02
RMM:   8    -0.232759421156E+04    0.39967E-04   -0.10917E-04  2995   0.790E-03    0.328E-02
RMM:   9    -0.232759420715E+04    0.44110E-05   -0.22749E-05  2945   0.361E-03
  26 F= -.23489964E+04 E0= -.23489963E+04  d E =-.122338E-01  mag=     1.0000
       N       E                     dE             d eps       ncg     rms          rms(c)
DAV:   1    -0.232753617578E+04    0.58036E-01   -0.35733E+00  4504   0.162E+00    0.602E-01
RMM:   2    -0.232759620192E+04   -0.60026E-01   -0.65176E-01  6530   0.407E-01    0.395E-01
RMM:   3    -0.232760500546E+04   -0.88035E-02   -0.65131E-02  6333   0.153E-01    0.705E-01
RMM:   4    -0.232760010433E+04    0.49011E-02   -0.75484E-03  6228   0.399E-02    0.177E-01
RMM:   5    -0.232760010512E+04   -0.78382E-06   -0.13724E-03  5213   0.183E-02    0.216E-01
RMM:   6    -0.232759981211E+04    0.29301E-03   -0.96925E-04  5280   0.167E-02    0.149E-01
RMM:   7    -0.232759975185E+04    0.60255E-04   -0.54150E-04  4463   0.122E-02    0.111E-01
RMM:   8    -0.232759958896E+04    0.16289E-03   -0.18630E-04  3142   0.888E-03    0.292E-02
RMM:   9    -0.232759959130E+04   -0.23357E-05   -0.35406E-05  2986   0.450E-03
  27 F= -.23490025E+04 E0= -.23490024E+04  d E =-.183424E-01  mag=     1.0000
       N       E                     dE             d eps       ncg     rms          rms(c)
DAV:   1    -0.232757436326E+04    0.25226E-01   -0.29226E+00  4504   0.150E+00    0.544E-01
RMM:   2    -0.232761289243E+04   -0.38529E-01   -0.40438E-01  6461   0.349E-01    0.471E-01
RMM:   3    -0.232761857865E+04   -0.56862E-02   -0.44864E-02  6319   0.131E-01    0.681E-01
RMM:   4    -0.232761380341E+04    0.47752E-02   -0.50957E-03  6113   0.364E-02    0.181E-01
RMM:   5    -0.232761368911E+04    0.11429E-03   -0.14052E-03  5244   0.185E-02    0.179E-01
RMM:   6    -0.232761349278E+04    0.19633E-03   -0.90020E-04  5304   0.168E-02    0.125E-01
RMM:   7    -0.232761347541E+04    0.17375E-04   -0.40045E-04  3555   0.129E-02    0.106E-01
RMM:   8    -0.232761337479E+04    0.10062E-03   -0.10391E-04  3060   0.680E-03    0.296E-02
RMM:   9    -0.232761339999E+04   -0.25207E-04   -0.42289E-05  2995   0.447E-03    0.252E-02
RMM:  10    -0.232761343473E+04   -0.34736E-04   -0.46918E-05  2995   0.414E-03    0.197E-02
RMM:  11    -0.232761347058E+04   -0.35848E-04   -0.61964E-05  2997   0.459E-03    0.143E-02
RMM:  12    -0.232761350105E+04   -0.30475E-04   -0.73493E-05  3024   0.470E-03    0.935E-03
RMM:  13    -0.232761352258E+04   -0.21524E-04   -0.65567E-05  2927   0.448E-03    0.519E-03
RMM:  14    -0.232761353382E+04   -0.11242E-04   -0.29306E-05  2843   0.359E-03    0.396E-03
RMM:  15    -0.232761354025E+04   -0.64313E-05   -0.21525E-05  2773   0.290E-03
  28 F= -.23490167E+04 E0= -.23490167E+04  d E =-.142046E-01  mag=     1.0000
       N       E                     dE             d eps       ncg     rms          rms(c)
DAV:   1    -0.232756845734E+04    0.45076E-01   -0.38138E+00  4504   0.172E+00    0.605E-01
RMM:   2    -0.232761860393E+04   -0.50147E-01   -0.53291E-01  6457   0.405E-01    0.487E-01
RMM:   3    -0.232762590372E+04   -0.72998E-02   -0.58102E-02  6298   0.148E-01    0.725E-01
RMM:   4    -0.232762050000E+04    0.54037E-02   -0.67519E-03  6228   0.411E-02    0.213E-01
RMM:   5    -0.232762015599E+04    0.34401E-03   -0.15644E-03  5354   0.195E-02    0.183E-01
RMM:   6    -0.232761986169E+04    0.29430E-03   -0.10000E-03  5078   0.185E-02    0.108E-01
RMM:   7    -0.232761995505E+04   -0.93358E-04   -0.43781E-04  3849   0.146E-02    0.126E-01
RMM:   8    -0.232761979552E+04    0.15953E-03   -0.12227E-04  3118   0.710E-03    0.309E-02
RMM:   9    -0.232761982214E+04   -0.26618E-04   -0.43295E-05  2994   0.462E-03    0.275E-02
RMM:  10    -0.232761986475E+04   -0.42616E-04   -0.53010E-05  3003   0.420E-03    0.230E-02
RMM:  11    -0.232761992377E+04   -0.59019E-04   -0.11907E-04  3148   0.568E-03    0.177E-02
RMM:  12    -0.232761997877E+04   -0.54996E-04   -0.13624E-04  3142   0.600E-03    0.124E-02
RMM:  13    -0.232762002356E+04   -0.44792E-04   -0.15479E-04  3166   0.633E-03    0.769E-03
RMM:  14    -0.232762005057E+04   -0.27010E-04   -0.71702E-05  2956   0.490E-03    0.585E-03
RMM:  15    -0.232762006635E+04   -0.15776E-04   -0.56914E-05  2913   0.409E-03    0.386E-03
RMM:  16    -0.232762007616E+04   -0.98102E-05   -0.39856E-05  2870   0.379E-03
  29 F= -.23490235E+04 E0= -.23490235E+04  d E =-.210406E-01  mag=     1.0000
       N       E                     dE             d eps       ncg     rms          rms(c)
DAV:   1    -0.232759094780E+04    0.29119E-01   -0.27028E+00  4504   0.152E+00    0.507E-01
RMM:   2    -0.232763074635E+04   -0.39799E-01   -0.41928E-01  6556   0.365E-01    0.432E-01
RMM:   3    -0.232763493046E+04   -0.41841E-02   -0.43819E-02  6311   0.126E-01    0.541E-01
RMM:   4    -0.232763200144E+04    0.29290E-02   -0.50281E-03  5992   0.343E-02    0.204E-01
RMM:   5    -0.232763159195E+04    0.40949E-03   -0.99625E-04  4770   0.157E-02    0.140E-01
RMM:   6    -0.232763136885E+04    0.22310E-03   -0.60620E-04  4892   0.149E-02    0.709E-02
RMM:   7    -0.232763151351E+04   -0.14466E-03   -0.31694E-04  3728   0.129E-02    0.120E-01
RMM:   8    -0.232763135156E+04    0.16195E-03   -0.97097E-05  3092   0.676E-03    0.233E-02
RMM:   9    -0.232763136163E+04   -0.10068E-04   -0.26002E-05  2976   0.424E-03    0.196E-02
RMM:  10    -0.232763137989E+04   -0.18261E-04   -0.32268E-05  2963   0.344E-03    0.140E-02
RMM:  11    -0.232763139697E+04   -0.17084E-04   -0.35043E-05  2961   0.374E-03    0.934E-03
RMM:  12    -0.232763140805E+04   -0.11076E-04   -0.26175E-05  2903   0.324E-03    0.577E-03
RMM:  13    -0.232763141457E+04   -0.65204E-05   -0.20891E-05  2797   0.295E-03
  30 F= -.23490351E+04 E0= -.23490351E+04  d E =-.115845E-01  mag=     1.0000
       N       E                     dE             d eps       ncg     rms          rms(c)
DAV:   1    -0.232759173816E+04    0.39670E-01   -0.28847E+00  4504   0.158E+00    0.516E-01
RMM:   2    -0.232763417779E+04   -0.42440E-01   -0.44832E-01  6552   0.379E-01    0.428E-01
RMM:   3    -0.232763849632E+04   -0.43185E-02   -0.46474E-02  6297   0.130E-01    0.529E-01
RMM:   4    -0.232763567795E+04    0.28184E-02   -0.52927E-03  6009   0.350E-02    0.207E-01
RMM:   5    -0.232763526481E+04    0.41314E-03   -0.10341E-03  4791   0.159E-02    0.144E-01
RMM:   6    -0.232763499351E+04    0.27130E-03   -0.61521E-04  4920   0.151E-02    0.683E-02
RMM:   7    -0.232763512501E+04   -0.13150E-03   -0.31056E-04  3795   0.130E-02    0.118E-01
RMM:   8    -0.232763496014E+04    0.16487E-03   -0.92894E-05  3096   0.673E-03    0.173E-02
RMM:   9    -0.232763496088E+04   -0.74037E-06   -0.17089E-05  2962   0.399E-03
  31 F= -.23490389E+04 E0= -.23490389E+04  d E =-.153998E-01  mag=     1.0000
       N       E                     dE             d eps       ncg     rms          rms(c)
DAV:   1    -0.232762655544E+04    0.84047E-02   -0.83099E-01  4544   0.961E-01    0.311E-01
RMM:   2    -0.232764018957E+04   -0.13634E-01   -0.14583E-01  6455   0.228E-01    0.219E-01
RMM:   3    -0.232764190537E+04   -0.17158E-02   -0.14123E-02  6053   0.822E-02    0.329E-01
RMM:   4    -0.232764070357E+04    0.12018E-02   -0.16620E-03  5402   0.220E-02    0.996E-02
RMM:   5    -0.232764067379E+04    0.29787E-04   -0.42738E-04  4294   0.120E-02    0.986E-02
RMM:   6    -0.232764055722E+04    0.11657E-03   -0.26270E-04  4880   0.105E-02    0.529E-02
RMM:   7    -0.232764059406E+04   -0.36842E-04   -0.12687E-04  3109   0.817E-03    0.727E-02
RMM:   8    -0.232764053322E+04    0.60841E-04   -0.42791E-05  2977   0.570E-03    0.149E-02
RMM:   9    -0.232764053567E+04   -0.24477E-05   -0.13252E-05  2948   0.354E-03
  32 F= -.23490447E+04 E0= -.23490447E+04  d E =-.580687E-02  mag=     1.0000
       N       E                     dE             d eps       ncg     rms          rms(c)
DAV:   1    -0.232763288918E+04    0.76440E-02   -0.52603E-01  4560   0.764E-01    0.247E-01
RMM:   2    -0.232764150477E+04   -0.86156E-02   -0.92159E-02  6453   0.181E-01    0.172E-01
RMM:   3    -0.232764256861E+04   -0.10638E-02   -0.88969E-03  5913   0.652E-02    0.257E-01
RMM:   4    -0.232764183461E+04    0.73400E-03   -0.10464E-03  4575   0.175E-02    0.798E-02
RMM:   5    -0.232764181463E+04    0.19980E-04   -0.26952E-04  3634   0.102E-02    0.781E-02
RMM:   6    -0.232764173943E+04    0.75198E-04   -0.17030E-04  4352   0.918E-03    0.417E-02
RMM:   7    -0.232764176336E+04   -0.23923E-04   -0.83695E-05  3029   0.697E-03    0.584E-02
RMM:   8    -0.232764172341E+04    0.39950E-04   -0.28479E-05  2947   0.512E-03    0.116E-02
RMM:   9    -0.232764172474E+04   -0.13338E-05   -0.88773E-06  2929   0.306E-03
  33 F= -.23490461E+04 E0= -.23490461E+04  d E =-.718535E-02  mag=     1.0000
       N       E                     dE             d eps       ncg     rms          rms(c)
DAV:   1    -0.232762894689E+04    0.12777E-01   -0.10120E+00  4516   0.104E+00    0.309E-01
RMM:   2    -0.232764674987E+04   -0.17803E-01   -0.19300E-01  6495   0.238E-01    0.219E-01
RMM:   3    -0.232764889814E+04   -0.21483E-02   -0.19221E-02  6034   0.894E-02    0.316E-01
RMM:   4    -0.232764780428E+04    0.10939E-02   -0.20488E-03  5153   0.223E-02    0.107E-01
RMM:   5    -0.232764773029E+04    0.73988E-04   -0.47716E-04  4604   0.123E-02    0.101E-01
RMM:   6    -0.232764762380E+04    0.10649E-03   -0.30565E-04  3735   0.109E-02    0.559E-02
RMM:   7    -0.232764765192E+04   -0.28121E-04   -0.14209E-04  3280   0.806E-03    0.683E-02
RMM:   8    -0.232764759714E+04    0.54782E-04   -0.40119E-05  2966   0.620E-03    0.141E-02
RMM:   9    -0.232764759802E+04   -0.87659E-06   -0.11049E-05  2940   0.315E-03
  34 F= -.23490518E+04 E0= -.23490518E+04  d E =-.574126E-02  mag=     1.0000
       N       E                     dE             d eps       ncg     rms          rms(c)
DAV:   1    -0.232753001001E+04    0.11759E+00   -0.64252E+00  4504   0.262E+00    0.773E-01
RMM:   2    -0.232764196106E+04   -0.11195E+00   -0.12236E+00  6469   0.590E-01    0.492E-01
RMM:   3    -0.232765542423E+04   -0.13463E-01   -0.12537E-01  6145   0.225E-01    0.728E-01
RMM:   4    -0.232765007287E+04    0.53514E-02   -0.13042E-02  6573   0.535E-02    0.284E-01
RMM:   5    -0.232764925985E+04    0.81302E-03   -0.25043E-03  5487   0.262E-02    0.211E-01
RMM:   6    -0.232764893284E+04    0.32701E-03   -0.19186E-03  5623   0.243E-02    0.162E-01
RMM:   7    -0.232764882928E+04    0.10356E-03   -0.84927E-04  5051   0.166E-02    0.134E-01
RMM:   8    -0.232764862382E+04    0.20546E-03   -0.18090E-04  3187   0.101E-02    0.359E-02
RMM:   9    -0.232764861743E+04    0.63969E-05   -0.42347E-05  3098   0.469E-03
  35 F= -.23490526E+04 E0= -.23490526E+04  d E =-.647570E-02  mag=     1.0000
       N       E                     dE             d eps       ncg     rms          rms(c)
DAV:   1    -0.232762627967E+04    0.22344E-01   -0.13221E+00  4504   0.118E+00    0.354E-01
RMM:   2    -0.232764990795E+04   -0.23628E-01   -0.25225E-01  6515   0.277E-01    0.291E-01
RMM:   3    -0.232765229612E+04   -0.23882E-02   -0.26219E-02  6123   0.103E-01    0.347E-01
RMM:   4    -0.232765090805E+04    0.13881E-02   -0.26717E-03  5609   0.255E-02    0.126E-01
RMM:   5    -0.232765084074E+04    0.67312E-04   -0.63087E-04  4528   0.136E-02    0.123E-01
RMM:   6    -0.232765069705E+04    0.14369E-03   -0.35706E-04  4003   0.116E-02    0.805E-02
RMM:   7    -0.232765067330E+04    0.23754E-04   -0.20102E-04  3644   0.900E-03    0.599E-02
RMM:   8    -0.232765062879E+04    0.44510E-04   -0.67003E-05  3040   0.679E-03    0.166E-02
RMM:   9    -0.232765062647E+04    0.23171E-05   -0.11457E-05  2943   0.388E-03
  36 F= -.23490547E+04 E0= -.23490547E+04  d E =-.860557E-02  mag=     1.0000
       N       E                     dE             d eps       ncg     rms          rms(c)
DAV:   1    -0.232763390746E+04    0.16721E-01   -0.12058E+00  4504   0.114E+00    0.335E-01
RMM:   2    -0.232765514259E+04   -0.21235E-01   -0.22623E-01  6488   0.263E-01    0.277E-01
RMM:   3    -0.232765725795E+04   -0.21154E-02   -0.22789E-02  6012   0.994E-02    0.322E-01
RMM:   4    -0.232765604262E+04    0.12153E-02   -0.23800E-03  5491   0.244E-02    0.140E-01
RMM:   5    -0.232765590119E+04    0.14143E-03   -0.54512E-04  4190   0.123E-02    0.111E-01
RMM:   6    -0.232765570365E+04    0.19755E-03   -0.52412E-04  5052   0.138E-02    0.419E-02
RMM:   7    -0.232765573488E+04   -0.31234E-04   -0.14543E-04  3267   0.907E-03    0.656E-02
RMM:   8    -0.232765568395E+04    0.50934E-04   -0.43105E-05  2967   0.557E-03    0.131E-02
RMM:   9    -0.232765567892E+04    0.50286E-05   -0.10936E-05  2925   0.335E-03
  37 F= -.23490593E+04 E0= -.23490593E+04  d E =-.461331E-02  mag=     1.0000
       N       E                     dE             d eps       ncg     rms          rms(c)
DAV:   1    -0.232764284929E+04    0.12835E-01   -0.77050E-01  4516   0.915E-01    0.269E-01
RMM:   2    -0.232765650386E+04   -0.13655E-01   -0.14527E-01  6473   0.212E-01    0.225E-01
RMM:   3    -0.232765785821E+04   -0.13543E-02   -0.14858E-02  5882   0.809E-02    0.256E-01
RMM:   4    -0.232765708317E+04    0.77504E-03   -0.15515E-03  4899   0.197E-02    0.113E-01
RMM:   5    -0.232765698842E+04    0.94750E-04   -0.34339E-04  3540   0.103E-02    0.889E-02
RMM:   6    -0.232765686375E+04    0.12466E-03   -0.33907E-04  4606   0.118E-02    0.338E-02
RMM:   7    -0.232765688376E+04   -0.20005E-04   -0.10250E-04  3176   0.771E-03    0.518E-02
RMM:   8    -0.232765685235E+04    0.31405E-04   -0.29097E-05  2937   0.513E-03    0.113E-02
RMM:   9    -0.232765684914E+04    0.32089E-05   -0.81056E-06  2910   0.291E-03
  38 F= -.23490601E+04 E0= -.23490601E+04  d E =-.544212E-02  mag=     1.0000
       N       E                     dE             d eps       ncg     rms          rms(c)
DAV:   1    -0.232764188882E+04    0.14964E-01   -0.10631E+00  4504   0.110E+00    0.308E-01
RMM:   2    -0.232766068144E+04   -0.18793E-01   -0.19176E-01  6519   0.255E-01    0.335E-01
RMM:   3    -0.232766158558E+04   -0.90413E-03   -0.17950E-02  6043   0.875E-02    0.288E-01
RMM:   4    -0.232766060098E+04    0.98459E-03   -0.20391E-03  5333   0.227E-02    0.129E-01
RMM:   5    -0.232766045933E+04    0.14166E-03   -0.36402E-04  3705   0.111E-02    0.972E-02
RMM:   6    -0.232766031626E+04    0.14306E-03   -0.43840E-04  4879   0.137E-02    0.428E-02
RMM:   7    -0.232766034950E+04   -0.33237E-04   -0.13509E-04  3244   0.915E-03    0.654E-02
RMM:   8    -0.232766029785E+04    0.51656E-04   -0.42522E-05  2980   0.538E-03    0.129E-02
RMM:   9    -0.232766029361E+04    0.42356E-05   -0.96895E-06  2914   0.331E-03
  39 F= -.23490634E+04 E0= -.23490634E+04  d E =-.322356E-02  mag=     1.0000
       N       E                     dE             d eps       ncg     rms          rms(c)
DAV:   1    -0.232764725005E+04    0.13048E-01   -0.79023E-01  4504   0.946E-01    0.265E-01
RMM:   2    -0.232766121009E+04   -0.13960E-01   -0.14259E-01  6521   0.220E-01    0.287E-01
RMM:   3    -0.232766189514E+04   -0.68505E-03   -0.13336E-02  5944   0.758E-02    0.248E-01
RMM:   4    -0.232766116517E+04    0.72998E-03   -0.15111E-03  4959   0.196E-02    0.111E-01
RMM:   5    -0.232766106005E+04    0.10511E-03   -0.26948E-04  3402   0.986E-03    0.839E-02
RMM:   6    -0.232766095323E+04    0.10683E-03   -0.33416E-04  4625   0.122E-02    0.374E-02
RMM:   7    -0.232766097678E+04   -0.23558E-04   -0.10381E-04  3135   0.828E-03    0.562E-02
RMM:   8    -0.232766093832E+04    0.38463E-04   -0.32869E-05  2953   0.500E-03    0.113E-02
RMM:   9    -0.232766093489E+04    0.34279E-05   -0.79076E-06  2911   0.304E-03
  40 F= -.23490638E+04 E0= -.23490638E+04  d E =-.368140E-02  mag=     1.0000
       N       E                     dE             d eps       ncg     rms          rms(c)
DAV:   1    -0.232764869466E+04    0.12244E-01   -0.92230E-01  4504   0.101E+00    0.273E-01
RMM:   2    -0.232766450780E+04   -0.15813E-01   -0.16081E-01  6544   0.232E-01    0.310E-01
RMM:   3    -0.232766520499E+04   -0.69719E-03   -0.14162E-02  6023   0.764E-02    0.265E-01
RMM:   4    -0.232766437048E+04    0.83451E-03   -0.15745E-03  4798   0.198E-02    0.987E-02
RMM:   5    -0.232766432109E+04    0.49392E-04   -0.28352E-04  3426   0.985E-03    0.932E-02
RMM:   6    -0.232766422574E+04    0.95350E-04   -0.28255E-04  4364   0.113E-02    0.578E-02
RMM:   7    -0.232766420973E+04    0.16014E-04   -0.11955E-04  3201   0.808E-03    0.448E-02
RMM:   8    -0.232766418442E+04    0.25306E-04   -0.28254E-05  2961   0.521E-03    0.105E-02
RMM:   9    -0.232766418174E+04    0.26772E-05   -0.63150E-06  2883   0.332E-03
  41 F= -.23490672E+04 E0= -.23490672E+04  d E =-.332875E-02  mag=     1.0000
       N       E                     dE             d eps       ncg     rms          rms(c)
DAV:   1    -0.232761587794E+04    0.48306E-01   -0.29927E+00  4504   0.182E+00    0.492E-01
RMM:   2    -0.232766702154E+04   -0.51144E-01   -0.52128E-01  6543   0.416E-01    0.551E-01
RMM:   3    -0.232766947315E+04   -0.24516E-02   -0.46393E-02  6244   0.138E-01    0.484E-01
RMM:   4    -0.232766672797E+04    0.27452E-02   -0.51769E-03  5895   0.355E-02    0.181E-01
RMM:   5    -0.232766654085E+04    0.18712E-03   -0.92851E-04  4982   0.160E-02    0.166E-01
RMM:   6    -0.232766624839E+04    0.29246E-03   -0.90132E-04  5215   0.180E-02    0.109E-01
RMM:   7    -0.232766618341E+04    0.64988E-04   -0.40171E-04  4351   0.133E-02    0.813E-02
RMM:   8    -0.232766609861E+04    0.84792E-04   -0.86606E-05  3286   0.679E-03    0.189E-02
RMM:   9    -0.232766608925E+04    0.93687E-05   -0.15888E-05  2933   0.491E-03
  42 F= -.23490692E+04 E0= -.23490692E+04  d E =-.540193E-02  mag=     1.0000
       N       E                     dE             d eps       ncg     rms          rms(c)
DAV:   1    -0.232765104807E+04    0.15051E-01   -0.12763E+00  4504   0.117E+00    0.324E-01
RMM:   2    -0.232767005881E+04   -0.19011E-01   -0.19690E-01  6432   0.262E-01    0.306E-01
RMM:   3    -0.232767171535E+04   -0.16565E-02   -0.17825E-02  6102   0.894E-02    0.346E-01
RMM:   4    -0.232767027063E+04    0.14447E-02   -0.19883E-03  5501   0.236E-02    0.993E-02
RMM:   5    -0.232767031091E+04   -0.40278E-04   -0.46735E-04  4360   0.122E-02    0.132E-01
RMM:   6    -0.232767010517E+04    0.20574E-03   -0.31008E-04  4403   0.113E-02    0.476E-02
RMM:   7    -0.232767011146E+04   -0.62891E-05   -0.13841E-04  3344   0.858E-03    0.464E-02
RMM:   8    -0.232767008056E+04    0.30898E-04   -0.38217E-05  2959   0.590E-03    0.113E-02
RMM:   9    -0.232767007848E+04    0.20757E-05   -0.77521E-06  2914   0.310E-03
  43 F= -.23490733E+04 E0= -.23490733E+04  d E =-.412226E-02  mag=     1.0000
       N       E                     dE             d eps       ncg     rms          rms(c)
DAV:   1    -0.232764582703E+04    0.24254E-01   -0.17205E+00  4504   0.136E+00    0.377E-01
RMM:   2    -0.232767141903E+04   -0.25592E-01   -0.26515E-01  6436   0.304E-01    0.354E-01
RMM:   3    -0.232767367388E+04   -0.22548E-02   -0.23968E-02  6159   0.104E-01    0.404E-01
RMM:   4    -0.232767170817E+04    0.19657E-02   -0.26939E-03  5734   0.273E-02    0.115E-01
RMM:   5    -0.232767176275E+04   -0.54578E-04   -0.61338E-04  4703   0.138E-02    0.154E-01
RMM:   6    -0.232767147997E+04    0.28279E-03   -0.41935E-04  4770   0.129E-02    0.555E-02
RMM:   7    -0.232767148793E+04   -0.79669E-05   -0.18915E-04  3659   0.964E-03    0.543E-02
RMM:   8    -0.232767144512E+04    0.42809E-04   -0.49880E-05  2984   0.610E-03    0.134E-02
RMM:   9    -0.232767144209E+04    0.30309E-05   -0.10201E-05  2933   0.350E-03
  44 F= -.23490749E+04 E0= -.23490749E+04  d E =-.565183E-02  mag=     1.0000
       N       E                     dE             d eps       ncg     rms          rms(c)
DAV:   1    -0.232765151957E+04    0.19926E-01   -0.17058E+00  4504   0.131E+00    0.359E-01
RMM:   2    -0.232767555312E+04   -0.24034E-01   -0.24955E-01  6533   0.298E-01    0.316E-01
RMM:   3    -0.232767789541E+04   -0.23423E-02   -0.23570E-02  6274   0.995E-02    0.383E-01
RMM:   4    -0.232767621001E+04    0.16854E-02   -0.25604E-03  5648   0.261E-02    0.112E-01
RMM:   5    -0.232767627918E+04   -0.69171E-04   -0.52184E-04  4511   0.128E-02    0.147E-01
RMM:   6    -0.232767603037E+04    0.24881E-03   -0.36206E-04  4663   0.121E-02    0.541E-02
RMM:   7    -0.232767604034E+04   -0.99698E-05   -0.14806E-04  3378   0.872E-03    0.509E-02
RMM:   8    -0.232767600475E+04    0.35589E-04   -0.52133E-05  2970   0.618E-03    0.137E-02
RMM:   9    -0.232767600370E+04    0.10508E-05   -0.94781E-06  2928   0.325E-03
  45 F= -.23490795E+04 E0= -.23490795E+04  d E =-.460494E-02  mag=     1.0000
       N       E                     dE             d eps       ncg     rms          rms(c)
DAV:   1    -0.232763542695E+04    0.40578E-01   -0.29624E+00  4504   0.173E+00    0.474E-01
RMM:   2    -0.232767725821E+04   -0.41831E-01   -0.43384E-01  6527   0.396E-01    0.422E-01
RMM:   3    -0.232768128114E+04   -0.40229E-02   -0.41245E-02  6331   0.132E-01    0.505E-01
RMM:   4    -0.232767835661E+04    0.29245E-02   -0.44338E-03  5991   0.345E-02    0.148E-01
RMM:   5    -0.232767848294E+04   -0.12633E-03   -0.89341E-04  5108   0.162E-02    0.197E-01
RMM:   6    -0.232767803335E+04    0.44959E-03   -0.61931E-04  5121   0.154E-02    0.687E-02
RMM:   7    -0.232767804891E+04   -0.15561E-04   -0.24589E-04  4077   0.108E-02    0.636E-02
RMM:   8    -0.232767799349E+04    0.55425E-04   -0.83605E-05  3018   0.668E-03    0.190E-02
RMM:   9    -0.232767799159E+04    0.18928E-05   -0.15139E-05  2954   0.392E-03
  46 F= -.23490815E+04 E0= -.23490815E+04  d E =-.666969E-02  mag=     1.0000
       N       E                     dE             d eps       ncg     rms          rms(c)
DAV:   1    -0.232765055086E+04    0.27443E-01   -0.22031E+00  4504   0.151E+00    0.422E-01
RMM:   2    -0.232768221913E+04   -0.31668E-01   -0.32371E-01  6521   0.350E-01    0.411E-01
RMM:   3    -0.232768480859E+04   -0.25895E-02   -0.31871E-02  6306   0.119E-01    0.444E-01
RMM:   4    -0.232768254057E+04    0.22680E-02   -0.32806E-03  5847   0.306E-02    0.127E-01
RMM:   5    -0.232768260954E+04   -0.68962E-04   -0.67204E-04  4819   0.147E-02    0.165E-01
RMM:   6    -0.232768230093E+04    0.30860E-03   -0.45889E-04  4923   0.139E-02    0.661E-02
RMM:   7    -0.232768230229E+04   -0.13609E-05   -0.21595E-04  3640   0.106E-02    0.605E-02
RMM:   8    -0.232768224947E+04    0.52828E-04   -0.60991E-05  3026   0.638E-03    0.136E-02
RMM:   9    -0.232768224818E+04    0.12850E-05   -0.10842E-05  2925   0.389E-03
  47 F= -.23490859E+04 E0= -.23490859E+04  d E =-.434303E-02  mag=     1.0000
       N       E                     dE             d eps       ncg     rms          rms(c)
DAV:   1    -0.232763907672E+04    0.43173E-01   -0.30095E+00  4504   0.176E+00    0.494E-01
RMM:   2    -0.232768239644E+04   -0.43320E-01   -0.44246E-01  6530   0.409E-01    0.484E-01
RMM:   3    -0.232768586457E+04   -0.34681E-02   -0.43819E-02  6339   0.139E-01    0.517E-01
RMM:   4    -0.232768278311E+04    0.30815E-02   -0.44794E-03  6018   0.357E-02    0.149E-01
RMM:   5    -0.232768288096E+04   -0.97847E-04   -0.90704E-04  5150   0.165E-02    0.195E-01
RMM:   6    -0.232768244615E+04    0.43481E-03   -0.61365E-04  5127   0.159E-02    0.760E-02
RMM:   7    -0.232768245005E+04   -0.39028E-05   -0.29350E-04  4084   0.119E-02    0.709E-02
RMM:   8    -0.232768237591E+04    0.74146E-04   -0.82537E-05  3110   0.677E-03    0.157E-02
RMM:   9    -0.232768237337E+04    0.25337E-05   -0.13759E-05  2943   0.420E-03
  48 F= -.23490861E+04 E0= -.23490861E+04  d E =-.458954E-02  mag=     1.0000
       N       E                     dE             d eps       ncg     rms          rms(c)
DAV:   1    -0.232767557479E+04    0.68011E-02   -0.51617E-01  4528   0.728E-01    0.202E-01
RMM:   2    -0.232768288990E+04   -0.73151E-02   -0.75323E-02  6533   0.169E-01    0.188E-01
RMM:   3    -0.232768359810E+04   -0.70821E-03   -0.74176E-03  5892   0.564E-02    0.224E-01
RMM:   4    -0.232768301600E+04    0.58210E-03   -0.77230E-04  3955   0.151E-02    0.570E-02
RMM:   5    -0.232768302570E+04   -0.96923E-05   -0.16337E-04  3350   0.866E-03    0.730E-02
RMM:   6    -0.232768296938E+04    0.56322E-04   -0.10528E-04  3339   0.802E-03    0.369E-02
RMM:   7    -0.232768296484E+04    0.45353E-05   -0.49999E-05  2978   0.641E-03
  49 F= -.23490867E+04 E0= -.23490867E+04  d E =-.512807E-02  mag=     1.0000
       N       E                     dE             d eps       ncg     rms          rms(c)
DAV:   1    -0.232765011106E+04    0.32858E-01   -0.21674E+00  4504   0.147E+00    0.430E-01
RMM:   2    -0.232768541034E+04   -0.35299E-01   -0.36326E-01  6565   0.356E-01    0.409E-01
RMM:   3    -0.232768865047E+04   -0.32401E-02   -0.36446E-02  6352   0.121E-01    0.464E-01
RMM:   4    -0.232768617007E+04    0.24804E-02   -0.36532E-03  5808   0.312E-02    0.128E-01
RMM:   5    -0.232768626583E+04   -0.95767E-04   -0.70240E-04  4890   0.146E-02    0.178E-01
RMM:   6    -0.232768588852E+04    0.37731E-03   -0.46333E-04  4875   0.133E-02    0.548E-02
RMM:   7    -0.232768587363E+04    0.14889E-04   -0.16638E-04  3938   0.948E-03    0.416E-02
RMM:   8    -0.232768584971E+04    0.23921E-04   -0.46506E-05  2974   0.599E-03    0.152E-02
RMM:   9    -0.232768584607E+04    0.36456E-05   -0.72884E-06  2908   0.313E-03
  50 F= -.23490898E+04 E0= -.23490898E+04  d E =-.315446E-02  mag=     1.0000
       N       E                     dE             d eps       ncg     rms          rms(c)
DAV:   1    -0.232768134148E+04    0.45082E-02   -0.27421E-01  4528   0.522E-01    0.154E-01
RMM:   2    -0.232768581965E+04   -0.44782E-02   -0.45937E-02  6566   0.127E-01    0.149E-01
RMM:   3    -0.232768621993E+04   -0.40028E-03   -0.45787E-03  5456   0.434E-02    0.166E-01
RMM:   4    -0.232768589925E+04    0.32068E-03   -0.46314E-04  3298   0.117E-02    0.445E-02
RMM:   5    -0.232768591341E+04   -0.14160E-04   -0.91039E-05  3092   0.681E-03    0.642E-02
RMM:   6    -0.232768586470E+04    0.48714E-04   -0.61127E-05  3028   0.631E-03    0.194E-02
RMM:   7    -0.232768586250E+04    0.21957E-05   -0.22946E-05  2986   0.499E-03
  51 F= -.23490899E+04 E0= -.23490899E+04  d E =-.327226E-02  mag=     1.0000
       N       E                     dE             d eps       ncg     rms          rms(c)
DAV:   1    -0.232766865612E+04    0.17209E-01   -0.10642E+00  4504   0.104E+00    0.311E-01
RMM:   2    -0.232768659965E+04   -0.17944E-01   -0.19117E-01  6581   0.252E-01    0.200E-01
RMM:   3    -0.232768897265E+04   -0.23730E-02   -0.18568E-02  6086   0.871E-02    0.337E-01
RMM:   4    -0.232768770138E+04    0.12713E-02   -0.19680E-03  4832   0.226E-02    0.917E-02
RMM:   5    -0.232768763621E+04    0.65172E-04   -0.34502E-04  4404   0.117E-02    0.856E-02
RMM:   6    -0.232768759529E+04    0.40918E-04   -0.18517E-04  3284   0.997E-03    0.633E-02
RMM:   7    -0.232768754996E+04    0.45329E-04   -0.63238E-05  3367   0.682E-03    0.187E-02
RMM:   8    -0.232768754691E+04    0.30532E-05   -0.16964E-05  2904   0.537E-03
  52 F= -.23490919E+04 E0= -.23490919E+04  d E =-.194322E-02  mag=     1.0000
       N       E                     dE             d eps       ncg     rms          rms(c)
DAV:   1    -0.232768544853E+04    0.21014E-02   -0.11777E-01  4624   0.347E-01    0.105E-01
RMM:   2    -0.232768744816E+04   -0.19996E-02   -0.21252E-02  6500   0.840E-02    0.714E-02
RMM:   3    -0.232768771913E+04   -0.27097E-03   -0.20692E-03  4102   0.283E-02    0.118E-01
RMM:   4    -0.232768755936E+04    0.15977E-03   -0.21862E-04  3043   0.893E-03    0.301E-02
RMM:   5    -0.232768755351E+04    0.58415E-05   -0.46370E-05  3027   0.498E-03
  53 F= -.23490920E+04 E0= -.23490920E+04  d E =-.203784E-02  mag=     1.0000
       N       E                     dE             d eps       ncg     rms          rms(c)
DAV:   1    -0.232766873584E+04    0.18824E-01   -0.10503E+00  4504   0.104E+00    0.307E-01
RMM:   2    -0.232768818339E+04   -0.19448E-01   -0.20950E-01  6594   0.254E-01    0.156E-01
RMM:   3    -0.232768998018E+04   -0.17968E-02   -0.19563E-02  5911   0.866E-02    0.204E-01
RMM:   4    -0.232768972357E+04    0.25660E-03   -0.19811E-03  4027   0.200E-02    0.116E-01
RMM:   5    -0.232768955371E+04    0.16986E-03   -0.31391E-04  4398   0.122E-02    0.543E-02
RMM:   6    -0.232768959751E+04   -0.43802E-04   -0.19546E-04  3439   0.102E-02    0.784E-02
RMM:   7    -0.232768952901E+04    0.68505E-04   -0.77099E-05  3058   0.690E-03    0.267E-02
RMM:   8    -0.232768952112E+04    0.78871E-05   -0.20380E-05  2919   0.486E-03
  54 F= -.23490942E+04 E0= -.23490942E+04  d E =-.220294E-02  mag=     1.0000
       N       E                     dE             d eps       ncg     rms          rms(c)
DAV:   1    -0.232768319652E+04    0.63325E-02   -0.32392E-01  4528   0.581E-01    0.173E-01
RMM:   2    -0.232768923466E+04   -0.60381E-02   -0.65030E-02  6544   0.141E-01    0.953E-02
RMM:   3    -0.232768992828E+04   -0.69363E-03   -0.62147E-03  5232   0.485E-02    0.157E-01
RMM:   4    -0.232768968253E+04    0.24575E-03   -0.63696E-04  3236   0.123E-02    0.551E-02
RMM:   5    -0.232768963975E+04    0.42785E-04   -0.93081E-05  3318   0.735E-03    0.275E-02
RMM:   6    -0.232768964863E+04   -0.88813E-05   -0.51553E-05  3023   0.632E-03
  55 F= -.23490945E+04 E0= -.23490945E+04  d E =-.246541E-02  mag=     1.0000
       N       E                     dE             d eps       ncg     rms          rms(c)
DAV:   1    -0.232767558135E+04    0.14058E-01   -0.76368E-01  4504   0.897E-01    0.264E-01
RMM:   2    -0.232769045264E+04   -0.14871E-01   -0.15962E-01  6497   0.216E-01    0.160E-01
RMM:   3    -0.232769210354E+04   -0.16509E-02   -0.15203E-02  5963   0.776E-02    0.246E-01
RMM:   4    -0.232769149714E+04    0.60640E-03   -0.15511E-03  3992   0.188E-02    0.873E-02
RMM:   5    -0.232769146242E+04    0.34716E-04   -0.26932E-04  4024   0.104E-02    0.861E-02
RMM:   6    -0.232769139333E+04    0.69096E-04   -0.15176E-04  3169   0.843E-03    0.491E-02
RMM:   7    -0.232769138496E+04    0.83619E-05   -0.73211E-05  3088   0.677E-03
  56 F= -.23490965E+04 E0= -.23490965E+04  d E =-.202173E-02  mag=     1.0000
       N       E                     dE             d eps       ncg     rms          rms(c)
DAV:   1    -0.232764204585E+04    0.49347E-01   -0.24046E+00  4504   0.159E+00    0.467E-01
RMM:   2    -0.232768862921E+04   -0.46583E-01   -0.50265E-01  6580   0.384E-01    0.245E-01
RMM:   3    -0.232769313894E+04   -0.45097E-02   -0.47852E-02  6069   0.137E-01    0.330E-01
RMM:   4    -0.232769235821E+04    0.78073E-03   -0.48032E-03  5442   0.310E-02    0.173E-01
RMM:   5    -0.232769202976E+04    0.32845E-03   -0.63938E-04  4658   0.154E-02    0.107E-01
RMM:   6    -0.232769206627E+04   -0.36506E-04   -0.44580E-04  4096   0.135E-02    0.121E-01
RMM:   7    -0.232769189782E+04    0.16845E-03   -0.20761E-04  4409   0.950E-03    0.293E-02
RMM:   8    -0.232769188889E+04    0.89250E-05   -0.33856E-05  2934   0.653E-03
  57 F= -.23490975E+04 E0= -.23490975E+04  d E =-.304879E-02  mag=     1.0000
       N       E                     dE             d eps       ncg     rms          rms(c)
DAV:   1    -0.232767710382E+04    0.14794E-01   -0.76589E-01  4516   0.893E-01    0.269E-01
RMM:   2    -0.232769237500E+04   -0.15271E-01   -0.16301E-01  6545   0.217E-01    0.186E-01
RMM:   3    -0.232769420407E+04   -0.18291E-02   -0.15760E-02  6027   0.768E-02    0.280E-01
RMM:   4    -0.232769334319E+04    0.86089E-03   -0.16117E-03  4265   0.196E-02    0.861E-02
RMM:   5    -0.232769333964E+04    0.35415E-05   -0.29892E-04  4016   0.103E-02    0.101E-01
RMM:   6    -0.232769323022E+04    0.10943E-03   -0.14858E-04  3127   0.839E-03    0.412E-02
RMM:   7    -0.232769321255E+04    0.17669E-04   -0.52294E-05  3132   0.632E-03    0.969E-03
RMM:   8    -0.232769321165E+04    0.90299E-06   -0.73280E-06  2883   0.457E-03
  58 F= -.23490992E+04 E0= -.23490992E+04  d E =-.167450E-02  mag=     1.0000
       N       E                     dE             d eps       ncg     rms          rms(c)
DAV:   1    -0.232766975121E+04    0.23461E-01   -0.11285E+00  4504   0.108E+00    0.323E-01
RMM:   2    -0.232769212610E+04   -0.22375E-01   -0.23876E-01  6533   0.262E-01    0.216E-01
RMM:   3    -0.232769473450E+04   -0.26084E-02   -0.23109E-02  6129   0.930E-02    0.325E-01
RMM:   4    -0.232769360739E+04    0.11271E-02   -0.23556E-03  4879   0.233E-02    0.106E-01
RMM:   5    -0.232769357742E+04    0.29971E-04   -0.43538E-04  4477   0.118E-02    0.115E-01
RMM:   6    -0.232769344147E+04    0.13595E-03   -0.22040E-04  3500   0.952E-03    0.577E-02
RMM:   7    -0.232769343168E+04    0.97880E-05   -0.11329E-04  3229   0.782E-03    0.448E-02
RMM:   8    -0.232769340268E+04    0.29002E-04   -0.38414E-05  2948   0.598E-03    0.110E-02
RMM:   9    -0.232769340030E+04    0.23807E-05   -0.64556E-06  2904   0.294E-03
  59 F= -.23490998E+04 E0= -.23490998E+04  d E =-.229906E-02  mag=     1.0000
       N       E                     dE             d eps       ncg     rms          rms(c)
DAV:   1    -0.232768783212E+04    0.55706E-02   -0.36565E-01  4528   0.626E-01    0.191E-01
RMM:   2    -0.232769439487E+04   -0.65627E-02   -0.69682E-02  6443   0.147E-01    0.133E-01
RMM:   3    -0.232769525183E+04   -0.85696E-03   -0.69557E-03  5649   0.543E-02    0.205E-01
RMM:   4    -0.232769477169E+04    0.48014E-03   -0.71627E-04  3529   0.141E-02    0.606E-02
RMM:   5    -0.232769477076E+04    0.92259E-06   -0.16830E-04  3418   0.872E-03    0.691E-02
RMM:   6    -0.232769471908E+04    0.51686E-04   -0.94811E-05  3131   0.764E-03    0.339E-02
RMM:   7    -0.232769471719E+04    0.18878E-05   -0.43313E-05  2964   0.601E-03
  60 F= -.23491014E+04 E0= -.23491014E+04  d E =-.159091E-02  mag=     1.0000
       N       E                     dE             d eps       ncg     rms          rms(c)
DAV:   1    -0.232768122926E+04    0.13490E-01   -0.72787E-01  4504   0.884E-01    0.272E-01
RMM:   2    -0.232769428854E+04   -0.13059E-01   -0.13888E-01  6448   0.207E-01    0.189E-01
RMM:   3    -0.232769604682E+04   -0.17583E-02   -0.14007E-02  5965   0.786E-02    0.296E-01
RMM:   4    -0.232769504503E+04    0.10018E-02   -0.14356E-03  4687   0.199E-02    0.836E-02
RMM:   5    -0.232769504842E+04   -0.33866E-05   -0.35063E-04  4433   0.114E-02    0.983E-02
RMM:   6    -0.232769494356E+04    0.10486E-03   -0.18171E-04  3596   0.909E-03    0.471E-02
RMM:   7    -0.232769493836E+04    0.51982E-05   -0.76891E-05  3012   0.704E-03
  61 F= -.23491020E+04 E0= -.23491020E+04  d E =-.220485E-02  mag=     1.0000
       N       E                     dE             d eps       ncg     rms          rms(c)
DAV:   1    -0.232768942250E+04    0.55211E-02   -0.37064E-01  4528   0.632E-01    0.178E-01
RMM:   2    -0.232769554769E+04   -0.61252E-02   -0.65414E-02  6453   0.143E-01    0.121E-01
RMM:   3    -0.232769635542E+04   -0.80773E-03   -0.67572E-03  5410   0.533E-02    0.185E-01
RMM:   4    -0.232769597221E+04    0.38321E-03   -0.68429E-04  3331   0.133E-02    0.606E-02
RMM:   5    -0.232769595518E+04    0.17034E-04   -0.13524E-04  3204   0.793E-03    0.546E-02
RMM:   6    -0.232769591859E+04    0.36593E-04   -0.94134E-05  3143   0.748E-03    0.243E-02
RMM:   7    -0.232769592178E+04   -0.31977E-05   -0.29920E-05  2955   0.557E-03
  62 F= -.23491033E+04 E0= -.23491033E+04  d E =-.133257E-02  mag=     1.0000
       N       E                     dE             d eps       ncg     rms          rms(c)
DAV:   1    -0.232767453612E+04    0.21382E-01   -0.12284E+00  4504   0.115E+00    0.320E-01
RMM:   2    -0.232769477129E+04   -0.20235E-01   -0.21624E-01  6487   0.258E-01    0.210E-01
RMM:   3    -0.232769737447E+04   -0.26032E-02   -0.22188E-02  5992   0.961E-02    0.327E-01
RMM:   4    -0.232769620322E+04    0.11712E-02   -0.22507E-03  4859   0.232E-02    0.110E-01
RMM:   5    -0.232769615768E+04    0.45545E-04   -0.45463E-04  4584   0.127E-02    0.102E-01
RMM:   6    -0.232769601876E+04    0.13892E-03   -0.28688E-04  4595   0.109E-02    0.411E-02
RMM:   7    -0.232769603547E+04   -0.16714E-04   -0.81969E-05  3088   0.708E-03    0.533E-02
RMM:   8    -0.232769600211E+04    0.33358E-04   -0.32829E-05  2942   0.541E-03    0.128E-02
RMM:   9    -0.232769599964E+04    0.24775E-05   -0.59212E-06  2909   0.263E-03
  63 F= -.23491041E+04 E0= -.23491041E+04  d E =-.205424E-02  mag=     1.0000
       N       E                     dE             d eps       ncg     rms          rms(c)
DAV:   1    -0.232769086495E+04    0.51372E-02   -0.43466E-01  4516   0.700E-01    0.188E-01
RMM:   2    -0.232769663087E+04   -0.57659E-02   -0.62350E-02  6304   0.148E-01    0.981E-02
RMM:   3    -0.232769716282E+04   -0.53195E-03   -0.60336E-03  5510   0.554E-02    0.123E-01
RMM:   4    -0.232769705389E+04    0.10893E-03   -0.62541E-04  3437   0.128E-02    0.754E-02
RMM:   5    -0.232769701236E+04    0.41532E-04   -0.17364E-04  3884   0.973E-03    0.526E-02
RMM:   6    -0.232769698399E+04    0.28370E-04   -0.91822E-05  3177   0.768E-03    0.306E-02
RMM:   7    -0.232769698154E+04    0.24463E-05   -0.29668E-05  2965   0.550E-03
  64 F= -.23491055E+04 E0= -.23491055E+04  d E =-.141508E-02  mag=     1.0000
       N       E                     dE             d eps       ncg     rms          rms(c)
DAV:   1    -0.232769277818E+04    0.42058E-02   -0.28907E-01  4560   0.571E-01    0.155E-01
RMM:   2    -0.232769664077E+04   -0.38626E-02   -0.41764E-02  6371   0.122E-01    0.852E-02
RMM:   3    -0.232769704283E+04   -0.40205E-03   -0.39549E-03  5353   0.449E-02    0.123E-01
RMM:   4    -0.232769690084E+04    0.14198E-03   -0.41857E-04  3237   0.112E-02    0.557E-02
RMM:   5    -0.232769687244E+04    0.28402E-04   -0.11752E-04  3745   0.857E-03    0.384E-02
RMM:   6    -0.232769686886E+04    0.35780E-05   -0.50096E-05  3001   0.655E-03
  65 F= -.23491057E+04 E0= -.23491057E+04  d E =-.165889E-02  mag=     1.0000
       N       E                     dE             d eps       ncg     rms          rms(c)
DAV:   1    -0.232769391780E+04    0.29546E-02   -0.35719E-01  4528   0.652E-01    0.163E-01
RMM:   2    -0.232769757776E+04   -0.36600E-02   -0.39561E-02  6213   0.130E-01    0.962E-02
RMM:   3    -0.232769792579E+04   -0.34802E-03   -0.37444E-03  5463   0.467E-02    0.126E-01
RMM:   4    -0.232769776062E+04    0.16517E-03   -0.39014E-04  3466   0.117E-02    0.611E-02
RMM:   5    -0.232769775610E+04    0.45221E-05   -0.16121E-04  3434   0.935E-03    0.606E-02
RMM:   6    -0.232769771191E+04    0.44185E-04   -0.92570E-05  3310   0.783E-03    0.294E-02
RMM:   7    -0.232769771421E+04   -0.22991E-05   -0.33037E-05  2953   0.592E-03
  66 F= -.23491069E+04 E0= -.23491069E+04  d E =-.121513E-02  mag=     1.0000
       N       E                     dE             d eps       ncg     rms          rms(c)
DAV:   1    -0.232769514931E+04    0.25626E-02   -0.23145E-01  4528   0.525E-01    0.132E-01
RMM:   2    -0.232769755007E+04   -0.24008E-02   -0.25718E-02  6233   0.105E-01    0.900E-02
RMM:   3    -0.232769784321E+04   -0.29313E-03   -0.25709E-03  5242   0.409E-02    0.134E-01
RMM:   4    -0.232769763255E+04    0.21065E-03   -0.26211E-04  3208   0.105E-02    0.411E-02
RMM:   5    -0.232769762313E+04    0.94202E-05   -0.10573E-04  3851   0.808E-03    0.444E-02
RMM:   6    -0.232769760612E+04    0.17014E-04   -0.41377E-05  2956   0.634E-03    0.249E-02
RMM:   7    -0.232769759977E+04    0.63486E-05   -0.12157E-05  2895   0.366E-03
  67 F= -.23491071E+04 E0= -.23491071E+04  d E =-.140025E-02  mag=     1.0000
       N       E                     dE             d eps       ncg     rms          rms(c)
DAV:   1    -0.232769456008E+04    0.30460E-02   -0.42878E-01  4504   0.719E-01    0.173E-01
RMM:   2    -0.232769828022E+04   -0.37201E-02   -0.39838E-02  6291   0.137E-01    0.119E-01
RMM:   3    -0.232769876508E+04   -0.48485E-03   -0.40115E-03  5528   0.526E-02    0.177E-01
RMM:   4    -0.232769838485E+04    0.38022E-03   -0.41793E-04  3754   0.132E-02    0.570E-02
RMM:   5    -0.232769836157E+04    0.23289E-04   -0.17229E-04  4136   0.102E-02    0.540E-02
RMM:   6    -0.232769834360E+04    0.17962E-04   -0.74930E-05  3032   0.754E-03    0.372E-02
RMM:   7    -0.232769832719E+04    0.16418E-04   -0.20655E-05  2935   0.490E-03    0.803E-03
RMM:   8    -0.232769832710E+04    0.82306E-07   -0.60838E-06  2892   0.360E-03
  68 F= -.23491083E+04 E0= -.23491083E+04  d E =-.116860E-02  mag=     1.0000
       N       E                     dE             d eps       ncg     rms          rms(c)
DAV:   1    -0.232769619018E+04    0.21370E-02   -0.23119E-01  4560   0.528E-01    0.127E-01
RMM:   2    -0.232769820672E+04   -0.20165E-02   -0.21559E-02  6154   0.101E-01    0.884E-02
RMM:   3    -0.232769845820E+04   -0.25148E-03   -0.21411E-03  4938   0.379E-02    0.130E-01
RMM:   4    -0.232769825438E+04    0.20381E-03   -0.22658E-04  3195   0.987E-03    0.431E-02
RMM:   5    -0.232769825444E+04   -0.55545E-07   -0.10018E-04  3129   0.773E-03    0.489E-02
RMM:   6    -0.232769822751E+04    0.26932E-04   -0.56979E-05  2986   0.676E-03    0.233E-02
RMM:   7    -0.232769822768E+04   -0.16930E-06   -0.22320E-05  2926   0.494E-03
  69 F= -.23491085E+04 E0= -.23491085E+04  d E =-.139478E-02  mag=     1.0000
       N       E                     dE             d eps       ncg     rms          rms(c)
DAV:   1    -0.232769464577E+04    0.35817E-02   -0.50527E-01  4504   0.771E-01    0.186E-01
RMM:   2    -0.232769929570E+04   -0.46499E-02   -0.47069E-02  6341   0.148E-01    0.192E-01
RMM:   3    -0.232769957399E+04   -0.27830E-03   -0.49753E-03  5478   0.553E-02    0.194E-01
RMM:   4    -0.232769908821E+04    0.48578E-03   -0.49817E-04  4225   0.142E-02    0.591E-02
RMM:   5    -0.232769908613E+04    0.20829E-05   -0.20739E-04  3954   0.100E-02    0.666E-02
RMM:   6    -0.232769902342E+04    0.62710E-04   -0.13548E-04  3675   0.882E-03    0.207E-02
RMM:   7    -0.232769902436E+04   -0.93433E-06   -0.27149E-05  2958   0.575E-03
  70 F= -.23491098E+04 E0= -.23491098E+04  d E =-.124891E-02  mag=     1.0000
       N       E                     dE             d eps       ncg     rms          rms(c)
DAV:   1    -0.232769732592E+04    0.16975E-02   -0.17953E-01  4544   0.460E-01    0.113E-01
RMM:   2    -0.232769900461E+04   -0.16787E-02   -0.16910E-02  6237   0.886E-02    0.120E-01
RMM:   3    -0.232769909327E+04   -0.88658E-04   -0.18348E-03  4695   0.342E-02    0.119E-01
RMM:   4    -0.232769891420E+04    0.17906E-03   -0.17447E-04  3039   0.924E-03    0.352E-02
RMM:   5    -0.232769891743E+04   -0.32300E-05   -0.78739E-05  3083   0.682E-03
  71 F= -.23491099E+04 E0= -.23491099E+04  d E =-.141300E-02  mag=     1.0000
       N       E                     dE             d eps       ncg     rms          rms(c)
DAV:   1    -0.232769517336E+04    0.37408E-02   -0.55520E-01  4504   0.803E-01    0.199E-01
RMM:   2    -0.232770010775E+04   -0.49344E-02   -0.49246E-02  6340   0.152E-01    0.214E-01
RMM:   3    -0.232770032784E+04   -0.22009E-03   -0.51761E-03  5631   0.565E-02    0.205E-01
RMM:   4    -0.232769977736E+04    0.55048E-03   -0.51317E-04  4541   0.149E-02    0.586E-02
RMM:   5    -0.232769974393E+04    0.33427E-04   -0.24862E-04  4416   0.115E-02    0.493E-02
RMM:   6    -0.232769972867E+04    0.15255E-04   -0.85784E-05  3146   0.824E-03    0.373E-02
RMM:   7    -0.232769972139E+04    0.72851E-05   -0.29696E-05  2951   0.513E-03
  72 F= -.23491111E+04 E0= -.23491111E+04  d E =-.116553E-02  mag=     1.0000
       N       E                     dE             d eps       ncg     rms          rms(c)
DAV:   1    -0.232769771578E+04    0.20129E-02   -0.23174E-01  4528   0.519E-01    0.129E-01
RMM:   2    -0.232769979303E+04   -0.20773E-02   -0.20753E-02  6256   0.986E-02    0.138E-01
RMM:   3    -0.232769989419E+04   -0.10115E-03   -0.22195E-03  4926   0.379E-02    0.135E-01
RMM:   4    -0.232769965672E+04    0.23747E-03   -0.21553E-04  3174   0.101E-02    0.370E-02
RMM:   5    -0.232769964218E+04    0.14532E-04   -0.98005E-05  3699   0.778E-03    0.304E-02
RMM:   6    -0.232769963535E+04    0.68349E-05   -0.43332E-05  2971   0.639E-03
  73 F= -.23491112E+04 E0= -.23491112E+04  d E =-.131383E-02  mag=     1.0000
       N       E                     dE             d eps       ncg     rms          rms(c)
DAV:   1    -0.232769552180E+04    0.41204E-02   -0.61600E-01  4504   0.839E-01    0.205E-01
RMM:   2    -0.232770062576E+04   -0.51040E-02   -0.54549E-02  6175   0.159E-01    0.149E-01
RMM:   3    -0.232770127249E+04   -0.64673E-03   -0.49446E-03  5597   0.559E-02    0.224E-01
RMM:   4    -0.232770064575E+04    0.62674E-03   -0.58912E-04  4439   0.151E-02    0.663E-02
RMM:   5    -0.232770063160E+04    0.14152E-04   -0.26577E-04  4296   0.115E-02    0.690E-02
RMM:   6    -0.232770058096E+04    0.50638E-04   -0.12883E-04  3229   0.896E-03    0.357E-02
RMM:   7    -0.232770058099E+04   -0.21348E-07   -0.38332E-05  2985   0.579E-03
  74 F= -.23491124E+04 E0= -.23491124E+04  d E =-.116241E-02  mag=     1.0000
       N       E                     dE             d eps       ncg     rms          rms(c)
DAV:   1    -0.232769962086E+04    0.96011E-03   -0.11043E-01  4608   0.356E-01    0.893E-02
RMM:   2    -0.232770056423E+04   -0.94337E-03   -0.98314E-03  6309   0.688E-02    0.785E-02
[...]
RMM:   2    -0.232770729981E+04   -0.42436E-03   -0.43022E-03  6048   0.566E-02    0.662E-02
RMM:   3    -0.232770733947E+04   -0.39663E-04   -0.37156E-04  4030   0.211E-02    0.828E-02
RMM:   4    -0.232770724857E+04    0.90908E-04   -0.55806E-05  3006   0.721E-03    0.203E-02
RMM:   5    -0.232770724142E+04    0.71506E-05   -0.40548E-05  3354   0.623E-03
 113 F= -.23491243E+04 E0= -.23491243E+04  d E =-.167758E-03  mag=     1.0000
       N       E                     dE             d eps       ncg     rms          rms(c)
DAV:   1    -0.232770720099E+04    0.47572E-04   -0.41072E-03  5208   0.714E-02    0.209E-02
RMM:   2    -0.232770724142E+04   -0.40427E-04   -0.25064E-04  5228   0.153E-02    0.400E-02
RMM:   3    -0.232770722301E+04    0.18413E-04   -0.31058E-05  2929   0.613E-03    0.134E-02
RMM:   4    -0.232770722088E+04    0.21322E-05   -0.41627E-06  2853   0.274E-03
 114 F= -.23491243E+04 E0= -.23491243E+04  d E =-.159002E-03  mag=     1.0000
       N       E                     dE             d eps       ncg     rms          rms(c)
DAV:   1    -0.232770702956E+04    0.19345E-03   -0.61851E-02  4528   0.275E-01    0.714E-02
RMM:   2    -0.232770737708E+04   -0.34751E-03   -0.36066E-03  6078   0.504E-02    0.511E-02
RMM:   3    -0.232770742201E+04   -0.44934E-04   -0.29008E-04  3811   0.185E-02    0.737E-02
RMM:   4    -0.232770734997E+04    0.72038E-04   -0.50371E-05  2973   0.659E-03    0.202E-02
RMM:   5    -0.232770734669E+04    0.32819E-05   -0.29871E-05  2991   0.551E-03
 115 F= -.23491244E+04 E0= -.23491244E+04  d E =-.154118E-03  mag=     1.0000
       N       E                     dE             d eps       ncg     rms          rms(c)
DAV:   1    -0.232770728931E+04    0.60659E-04   -0.66457E-03  4816   0.909E-02    0.262E-02
RMM:   2    -0.232770734732E+04   -0.58012E-04   -0.42270E-04  5724   0.192E-02    0.411E-02
RMM:   3    -0.232770733130E+04    0.16022E-04   -0.51729E-05  2953   0.732E-03    0.198E-02
RMM:   4    -0.232770732665E+04    0.46523E-05   -0.60535E-06  2885   0.317E-03
 116 F= -.23491244E+04 E0= -.23491244E+04  d E =-.143522E-03  mag=     1.0000
       N       E                     dE             d eps       ncg     rms          rms(c)
DAV:   1    -0.232770716367E+04    0.16764E-03   -0.50024E-02  4560   0.246E-01    0.568E-02
RMM:   2    -0.232770747017E+04   -0.30650E-03   -0.31595E-03  6276   0.457E-02    0.440E-02
RMM:   3    -0.232770749695E+04   -0.26781E-04   -0.23468E-04  3516   0.150E-02    0.564E-02
RMM:   4    -0.232770745455E+04    0.42401E-04   -0.35305E-05  2944   0.574E-03    0.190E-02
RMM:   5    -0.232770745392E+04    0.62304E-06   -0.24212E-05  2937   0.481E-03
 117 F= -.23491246E+04 E0= -.23491246E+04  d E =-.153751E-03  mag=     1.0000
       N       E                     dE             d eps       ncg     rms          rms(c)
DAV:   1    -0.232770711863E+04    0.33591E-03   -0.53981E-02  4560   0.256E-01    0.614E-02
RMM:   2    -0.232770749795E+04   -0.37931E-03   -0.35189E-03  6362   0.498E-02    0.743E-02
RMM:   3    -0.232770747390E+04    0.24053E-04   -0.28030E-04  3602   0.154E-02    0.522E-02
RMM:   4    -0.232770743456E+04    0.39334E-04   -0.33250E-05  2952   0.601E-03    0.168E-02
RMM:   5    -0.232770743189E+04    0.26679E-05   -0.26486E-05  3016   0.497E-03
 118 F= -.23491246E+04 E0= -.23491246E+04  d E =-.159514E-03  mag=     1.0000
       N       E                     dE             d eps       ncg     rms          rms(c)
DAV:   1    -0.232770733546E+04    0.99101E-04   -0.34183E-02  4576   0.203E-01    0.477E-02
RMM:   2    -0.232770758628E+04   -0.25082E-03   -0.21859E-03  6358   0.397E-02    0.681E-02
RMM:   3    -0.232770755477E+04    0.31509E-04   -0.18410E-04  3328   0.124E-02    0.395E-02
RMM:   4    -0.232770753481E+04    0.19963E-04   -0.22081E-05  2930   0.504E-03    0.165E-02
RMM:   5    -0.232770753563E+04   -0.82183E-06   -0.99349E-06  2891   0.295E-03
 119 F= -.23491247E+04 E0= -.23491247E+04  d E =-.143239E-03  mag=     1.0000
       N       E                     dE             d eps       ncg     rms          rms(c)
DAV:   1    -0.232770685053E+04    0.68428E-03   -0.11999E-01  4560   0.381E-01    0.857E-02
RMM:   2    -0.232770763037E+04   -0.77984E-03   -0.74403E-03  6191   0.694E-02    0.967E-02
RMM:   3    -0.232770762024E+04    0.10128E-04   -0.60441E-04  4237   0.237E-02    0.783E-02
RMM:   4    -0.232770753639E+04    0.83850E-04   -0.71451E-05  3055   0.739E-03    0.260E-02
RMM:   5    -0.232770755052E+04   -0.14131E-04   -0.44720E-05  2974   0.589E-03    0.451E-02
RMM:   6    -0.232770752575E+04    0.24769E-04   -0.27909E-05  2956   0.548E-03    0.106E-02
RMM:   7    -0.232770752516E+04    0.59212E-06   -0.80842E-06  2890   0.393E-03
 120 F= -.23491248E+04 E0= -.23491248E+04  d E =-.207252E-03  mag=     1.0000
       N       E                     dE             d eps       ncg     rms          rms(c)
DAV:   1    -0.232770737943E+04    0.14633E-03   -0.46117E-02  4528   0.237E-01    0.589E-02
RMM:   2    -0.232770768201E+04   -0.30258E-03   -0.29352E-03  6177   0.445E-02    0.601E-02
RMM:   3    -0.232770768791E+04   -0.59034E-05   -0.24145E-04  3615   0.155E-02    0.576E-02
RMM:   4    -0.232770764342E+04    0.44485E-04   -0.33087E-05  2954   0.568E-03    0.179E-02
RMM:   5    -0.232770764964E+04   -0.62200E-05   -0.19343E-05  2912   0.410E-03
 121 F= -.23491250E+04 E0= -.23491250E+04  d E =-.185519E-03  mag=     1.0000
       N       E                     dE             d eps       ncg     rms          rms(c)
DAV:   1    -0.232770748567E+04    0.15776E-03   -0.21152E-02  4624   0.161E-01    0.400E-02
RMM:   2    -0.232770762312E+04   -0.13745E-03   -0.13581E-03  6247   0.311E-02    0.385E-02
RMM:   3    -0.232770762871E+04   -0.55946E-05   -0.11401E-04  3128   0.104E-02    0.399E-02
RMM:   4    -0.232770760752E+04    0.21195E-04   -0.15708E-05  2909   0.446E-03    0.116E-02
RMM:   5    -0.232770760845E+04   -0.92969E-06   -0.11615E-05  2890   0.324E-03
 122 F= -.23491250E+04 E0= -.23491250E+04  d E =-.186184E-03  mag=     1.0000
       N       E                     dE             d eps       ncg     rms          rms(c)
DAV:   1    -0.232770749965E+04    0.10786E-03   -0.29348E-02  4560   0.189E-01    0.484E-02
RMM:   2    -0.232770770008E+04   -0.20042E-03   -0.19842E-03  6267   0.364E-02    0.450E-02
RMM:   3    -0.232770771077E+04   -0.10695E-04   -0.16965E-04  3234   0.124E-02    0.473E-02
RMM:   4    -0.232770768138E+04    0.29395E-04   -0.23732E-05  2926   0.507E-03    0.151E-02
RMM:   5    -0.232770768088E+04    0.49651E-06   -0.12070E-05  2898   0.324E-03
 123 F= -.23491251E+04 E0= -.23491251E+04  d E =-.121994E-03  mag=     1.0000
       N       E                     dE             d eps       ncg     rms          rms(c)
DAV:   1    -0.232770744335E+04    0.23803E-03   -0.32757E-02  4528   0.199E-01    0.504E-02
RMM:   2    -0.232770766119E+04   -0.21784E-03   -0.21911E-03  6283   0.379E-02    0.436E-02
RMM:   3    -0.232770767933E+04   -0.18139E-04   -0.19181E-04  3294   0.130E-02    0.506E-02
RMM:   4    -0.232770764467E+04    0.34652E-04   -0.25396E-05  2932   0.524E-03    0.139E-02
RMM:   5    -0.232770764261E+04    0.20628E-05   -0.16331E-05  2923   0.395E-03
 124 F= -.23491251E+04 E0= -.23491251E+04  d E =-.136388E-03  mag=     1.0000
       N       E                     dE             d eps       ncg     rms          rms(c)
DAV:   1    -0.232770745939E+04    0.18528E-03   -0.39734E-02  4544   0.220E-01    0.552E-02
RMM:   2    -0.232770775056E+04   -0.29117E-03   -0.28042E-03  6324   0.430E-02    0.587E-02
RMM:   3    -0.232770775520E+04   -0.46339E-05   -0.24441E-04  3439   0.146E-02    0.536E-02
RMM:   4    -0.232770771842E+04    0.36773E-04   -0.30334E-05  2936   0.565E-03    0.184E-02
RMM:   5    -0.232770772007E+04   -0.16426E-05   -0.14980E-05  2913   0.357E-03
 125 F= -.23491252E+04 E0= -.23491252E+04  d E =-.119473E-03  mag=     1.0000
       N       E                     dE             d eps       ncg     rms          rms(c)
DAV:   1    -0.232770760311E+04    0.11532E-03   -0.14351E-02  4736   0.132E-01    0.348E-02
RMM:   2    -0.232770772020E+04   -0.11710E-03   -0.10232E-03  6212   0.258E-02    0.467E-02
RMM:   3    -0.232770770443E+04    0.15775E-04   -0.98060E-05  3029   0.916E-03    0.274E-02
RMM:   4    -0.232770769616E+04    0.82696E-05   -0.13560E-05  2913   0.369E-03
 126 F= -.23491252E+04 E0= -.23491252E+04  d E =-.121168E-03  mag=     1.0000
       N       E                     dE             d eps       ncg     rms          rms(c)
DAV:   1    -0.232770752607E+04    0.17836E-03   -0.43907E-02  4528   0.231E-01    0.565E-02
RMM:   2    -0.232770781441E+04   -0.28834E-03   -0.29116E-03  6183   0.426E-02    0.507E-02
RMM:   3    -0.232770783073E+04   -0.16321E-04   -0.25244E-04  3477   0.152E-02    0.553E-02
RMM:   4    -0.232770778964E+04    0.41091E-04   -0.32802E-05  2939   0.551E-03    0.174E-02
RMM:   5    -0.232770779026E+04   -0.61179E-06   -0.24105E-05  2938   0.445E-03
 127 F= -.23491254E+04 E0= -.23491254E+04  d E =-.127074E-03  mag=     1.0000
       N       E                     dE             d eps       ncg     rms          rms(c)
DAV:   1    -0.232770759255E+04    0.19709E-03   -0.26524E-02  4560   0.180E-01    0.443E-02
RMM:   2    -0.232770777084E+04   -0.17829E-03   -0.17927E-03  6311   0.351E-02    0.397E-02
RMM:   3    -0.232770778459E+04   -0.13743E-04   -0.16839E-04  3172   0.117E-02    0.456E-02
RMM:   4    -0.232770775676E+04    0.27826E-04   -0.20683E-05  2902   0.487E-03    0.127E-02
RMM:   5    -0.232770776020E+04   -0.34382E-05   -0.11677E-05  2912   0.299E-03
 128 F= -.23491254E+04 E0= -.23491254E+04  d E =-.122937E-03  mag=     1.0000
       N       E                     dE             d eps       ncg     rms          rms(c)
DAV:   1    -0.232770765827E+04    0.98492E-04   -0.25661E-02  4560   0.174E-01    0.374E-02
RMM:   2    -0.232770781709E+04   -0.15882E-03   -0.16028E-03  6192   0.317E-02    0.348E-02
RMM:   3    -0.232770782687E+04   -0.97807E-05   -0.13986E-04  3112   0.110E-02    0.383E-02
RMM:   4    -0.232770780884E+04    0.18038E-04   -0.16760E-05  2913   0.425E-03    0.126E-02
RMM:   5    -0.232770781179E+04   -0.29540E-05   -0.89154E-06  2870   0.260E-03
 129 F= -.23491254E+04 E0= -.23491254E+04  d E =-.781166E-04  mag=     1.0000
       N       E                     dE             d eps       ncg     rms          rms(c)
DAV:   1    -0.232770754207E+04    0.26676E-03   -0.43142E-02  4560   0.226E-01    0.488E-02
RMM:   2    -0.232770781533E+04   -0.27326E-03   -0.27312E-03  6239   0.410E-02    0.475E-02
RMM:   3    -0.232770782524E+04   -0.99106E-05   -0.23609E-04  3314   0.141E-02    0.474E-02
RMM:   4    -0.232770779681E+04    0.28430E-04   -0.28341E-05  2944   0.513E-03    0.165E-02
RMM:   5    -0.232770779778E+04   -0.96734E-06   -0.13796E-05  2899   0.327E-03
 130 F= -.23491255E+04 E0= -.23491255E+04  d E =-.986630E-04  mag=     1.0000
       N       E                     dE             d eps       ncg     rms          rms(c)
DAV:   1    -0.232770782232E+04   -0.25512E-04   -0.17576E-02  4592   0.146E-01    0.426E-02
RMM:   2    -0.232770795119E+04   -0.12886E-03   -0.96226E-04  6066   0.273E-02    0.639E-02
RMM:   3    -0.232770791501E+04    0.36180E-04   -0.10313E-04  3149   0.103E-02    0.351E-02
RMM:   4    -0.232770790020E+04    0.14806E-04   -0.16934E-05  2919   0.414E-03    0.161E-02
RMM:   5    -0.232770789773E+04    0.24752E-05   -0.78249E-06  2847   0.272E-03
 131 F= -.23491256E+04 E0= -.23491256E+04  d E =-.120362E-03  mag=     1.0000
       N       E                     dE             d eps       ncg     rms          rms(c)
DAV:   1    -0.232770784883E+04    0.51375E-04   -0.11334E-02  4656   0.117E-01    0.357E-02
RMM:   2    -0.232770794485E+04   -0.96021E-04   -0.64636E-04  5971   0.220E-02    0.610E-02
RMM:   3    -0.232770790326E+04    0.41587E-04   -0.72319E-05  3021   0.880E-03    0.234E-02
RMM:   4    -0.232770789661E+04    0.66519E-05   -0.11781E-05  2919   0.339E-03
 132 F= -.23491256E+04 E0= -.23491256E+04  d E =-.135695E-03  mag=     1.0000
       N       E                     dE             d eps       ncg     rms          rms(c)
DAV:   1    -0.232770789469E+04    0.85696E-05   -0.11740E-02  4560   0.120E-01    0.331E-02
RMM:   2    -0.232770796027E+04   -0.65584E-04   -0.66097E-04  6018   0.222E-02    0.281E-02
RMM:   3    -0.232770796521E+04   -0.49321E-05   -0.64780E-05  2974   0.837E-03
 133 F= -.23491257E+04 E0= -.23491257E+04  d E =-.832650E-04  mag=     1.0000
       N       E                     dE             d eps       ncg     rms          rms(c)
DAV:   1    -0.232770788418E+04    0.76089E-04   -0.12912E-02  4592   0.126E-01    0.360E-02
RMM:   2    -0.232770794946E+04   -0.65273E-04   -0.74141E-04  6029   0.238E-02    0.217E-02
RMM:   3    -0.232770795534E+04   -0.58788E-05   -0.65149E-05  2958   0.822E-03
 134 F= -.23491257E+04 E0= -.23491257E+04  d E =-.888210E-04  mag=     1.0000
       N       E                     dE             d eps       ncg     rms          rms(c)
DAV:   1    -0.232770790928E+04    0.40182E-04   -0.12905E-02  4560   0.126E-01    0.354E-02
RMM:   2    -0.232770798512E+04   -0.75840E-04   -0.81998E-04  6098   0.249E-02    0.239E-02
RMM:   3    -0.232770799472E+04   -0.95998E-05   -0.73263E-05  2981   0.842E-03
 135 F= -.23491257E+04 E0= -.23491257E+04  d E =-.548048E-04  mag=     1.0000
       N       E                     dE             d eps       ncg     rms          rms(c)
DAV:   1    -0.232770797104E+04    0.14074E-04   -0.12005E-03  5536   0.397E-02    0.195E-02
RMM:   2    -0.232770800511E+04   -0.34066E-04   -0.11157E-04  3850   0.882E-03    0.503E-02
RMM:   3    -0.232770797501E+04    0.30101E-04   -0.24198E-05  2744   0.484E-03    0.109E-02
RMM:   4    -0.232770797424E+04    0.77131E-06   -0.70009E-06  2610   0.205E-03
 136 F= -.23491257E+04 E0= -.23491257E+04  d E =-.390596E-04  mag=     1.0000
       N       E                     dE             d eps       ncg     rms          rms(c)
DAV:   1    -0.232770799877E+04   -0.23766E-04   -0.66850E-03  4528   0.901E-02    0.289E-02
RMM:   2    -0.232770803181E+04   -0.33040E-04   -0.32061E-04  5745   0.168E-02    0.244E-02
RMM:   3    -0.232770803715E+04   -0.53329E-05   -0.36633E-05  2948   0.726E-03
 137 F= -.23491258E+04 E0= -.23491258E+04  d E =-.743224E-04  mag=     1.0000
       N       E                     dE             d eps       ncg     rms          rms(c)
DAV:   1    -0.232770800560E+04    0.26211E-04   -0.45909E-03  4560   0.749E-02    0.263E-02
RMM:   2    -0.232770802589E+04   -0.20285E-04   -0.22469E-04  5286   0.145E-02    0.202E-02
RMM:   3    -0.232770803230E+04   -0.64166E-05   -0.27002E-05  2934   0.588E-03
 138 F= -.23491258E+04 E0= -.23491258E+04  d E =-.789840E-04  mag=     1.0000
       N       E                     dE             d eps       ncg     rms          rms(c)
DAV:   1    -0.232770802041E+04    0.54804E-05   -0.87532E-03  4560   0.104E-01    0.308E-02
RMM:   2    -0.232770808546E+04   -0.65053E-04   -0.58714E-04  5921   0.205E-02    0.356E-02
RMM:   3    -0.232770807865E+04    0.68049E-05   -0.52640E-05  2953   0.717E-03
 139 F= -.23491258E+04 E0= -.23491258E+04  d E =-.377323E-04  mag=     1.0000
       N       E                     dE             d eps       ncg     rms          rms(c)
DAV:   1    -0.232770806014E+04    0.25315E-04   -0.26210E-03  5032   0.570E-02    0.195E-02
RMM:   2    -0.232770807652E+04   -0.16378E-04   -0.17229E-04  4476   0.116E-02    0.172E-02
RMM:   3    -0.232770807518E+04    0.13430E-05   -0.20377E-05  2910   0.514E-03
 140 F= -.23491258E+04 E0= -.23491258E+04  d E =-.295065E-04  mag=     1.0000
       N       E                     dE             d eps       ncg     rms          rms(c)
DAV:   1    -0.232770805794E+04    0.18587E-04   -0.10514E-02  4528   0.113E-01    0.319E-02
RMM:   2    -0.232770810528E+04   -0.47346E-04   -0.53333E-04  5910   0.210E-02    0.160E-02
RMM:   3    -0.232770810875E+04   -0.34651E-05   -0.49487E-05  2928   0.826E-03
 141 F= -.23491259E+04 E0= -.23491259E+04  d E =-.431844E-04  mag=     1.0000
       N       E                     dE             d eps       ncg     rms          rms(c)
DAV:   1    -0.232770810185E+04    0.34304E-05   -0.69080E-05  5410   0.111E-02    0.121E-02
RMM:   2    -0.232770811718E+04   -0.15330E-04   -0.19593E-05  2779   0.326E-03    0.369E-02
RMM:   3    -0.232770810027E+04    0.16915E-04   -0.83041E-06  2383   0.260E-03    0.522E-03
RMM:   4    -0.232770810049E+04   -0.22403E-06   -0.28542E-06  2237   0.134E-03
 142 F= -.23491259E+04 E0= -.23491259E+04  d E =-.356568E-04  mag=     1.0000
       N       E                     dE             d eps       ncg     rms          rms(c)
DAV:   1    -0.232770808055E+04    0.19721E-04   -0.84198E-03  4560   0.101E-01    0.314E-02
RMM:   2    -0.232770812028E+04   -0.39737E-04   -0.43689E-04  5893   0.187E-02    0.169E-02
RMM:   3    -0.232770813011E+04   -0.98229E-05   -0.38437E-05  2937   0.737E-03
 143 F= -.23491259E+04 E0= -.23491259E+04  d E =-.505153E-04  mag=     1.0000
       N       E                     dE             d eps       ncg     rms          rms(c)
DAV:   1    -0.232770810535E+04    0.14928E-04   -0.81958E-04  5580   0.327E-02    0.134E-02
RMM:   2    -0.232770811010E+04   -0.47455E-05   -0.45987E-05  3268   0.652E-03
 144 F= -.23491259E+04 E0= -.23491259E+04  d E =-.370409E-04  mag=     1.0000
       N       E                     dE             d eps       ncg     rms          rms(c)
DAV:   1    -0.232770806425E+04    0.41102E-04   -0.76238E-03  4528   0.965E-02    0.258E-02
RMM:   2    -0.232770811543E+04   -0.51179E-04   -0.56106E-04  5850   0.205E-02    0.166E-02
RMM:   3    -0.232770812296E+04   -0.75304E-05   -0.56795E-05  2935   0.777E-03
 145 F= -.23491259E+04 E0= -.23491259E+04  d E =-.321363E-04  mag=     1.0000
       N       E                     dE             d eps       ncg     rms          rms(c)
DAV:   1    -0.232770811469E+04    0.73902E-06   -0.15304E-05  4122   0.662E-03    0.977E-03
RMM:   2    -0.232770812198E+04   -0.72921E-05   -0.84685E-06  2503   0.276E-03
 146 F= -.23491259E+04 E0= -.23491259E+04  d E =-.314878E-04  mag=     1.0000
       N       E                     dE             d eps       ncg     rms          rms(c)
DAV:   1    -0.232770812189E+04   -0.72016E-05   -0.73471E-03  4528   0.941E-02    0.286E-02
RMM:   2    -0.232770815824E+04   -0.36343E-04   -0.41372E-04  5627   0.178E-02    0.161E-02
RMM:   3    -0.232770816699E+04   -0.87532E-05   -0.42907E-05  2920   0.804E-03
 147 F= -.23491260E+04 E0= -.23491260E+04  d E =-.346149E-04  mag=     1.0000
       N       E                     dE             d eps       ncg     rms          rms(c)
DAV:   1    -0.232770815602E+04    0.22186E-05   -0.13125E-04  5408   0.140E-02    0.937E-03
RMM:   2    -0.232770815965E+04   -0.36330E-05   -0.12127E-05  2610   0.321E-03
 148 F= -.23491260E+04 E0= -.23491260E+04  d E =-.259664E-04  mag=     1.0000
       N       E                     dE             d eps       ncg     rms          rms(c)
DAV:   1    -0.232770816369E+04   -0.76773E-05   -0.64654E-03  4528   0.873E-02    0.248E-02
RMM:   2    -0.232770819901E+04   -0.35312E-04   -0.39758E-04  5658   0.168E-02    0.130E-02
RMM:   3    -0.232770820142E+04   -0.24110E-05   -0.36163E-05  2907   0.738E-03
 149 F= -.23491260E+04 E0= -.23491260E+04  d E =-.231180E-04  mag=     1.0000
       N       E                     dE             d eps       ncg     rms          rms(c)
DAV:   1    -0.232770820103E+04   -0.20201E-05   -0.67240E-04  5056   0.288E-02    0.137E-02
RMM:   2    -0.232770821618E+04   -0.15157E-04   -0.55877E-05  3217   0.618E-03    0.319E-02
RMM:   3    -0.232770820390E+04    0.12282E-04   -0.11684E-05  2681   0.379E-03    0.735E-03
RMM:   4    -0.232770820329E+04    0.61077E-06   -0.22872E-06  2411   0.151E-03
 150 F= -.23491260E+04 E0= -.23491260E+04  d E =-.189116E-04  mag=     1.0000
