       N       E                     dE             d eps       ncg     rms          rms(c)
DAV:   1     0.133121486254E+05    0.13312E+05   -0.85499E+05  4584   0.145E+03
DAV:   2    -0.101133773050E+04   -0.14323E+05   -0.13688E+05  5008   0.332E+02
DAV:   3    -0.249538078337E+04   -0.14840E+04   -0.14652E+04  5592   0.115E+02
DAV:   4    -0.254026325920E+04   -0.44882E+02   -0.44618E+02  6744   0.285E+01
DAV:   5    -0.254115579030E+04   -0.89253E+00   -0.89007E+00  6312   0.349E+00    0.171E+02
RMM:   6    -0.149847076890E+04    0.10427E+04   -0.19796E+03  4523   0.385E+01    0.767E+01
RMM:   7    -0.168610620599E+04   -0.18764E+03   -0.33562E+02  5238   0.145E+01    0.620E+01
RMM:   8    -0.171589100349E+04   -0.29785E+02   -0.10730E+02  5388   0.950E+00    0.504E+01
RMM:   9    -0.173707481087E+04   -0.21184E+02   -0.58077E+01  5206   0.666E+00    0.380E+01
RMM:  10    -0.186493767592E+04   -0.12786E+03   -0.61244E+01  5128   0.782E+00    0.311E+01
RMM:  11    -0.196244532860E+04   -0.97508E+02   -0.44114E+01  5335   0.643E+00    0.234E+01
RMM:  12    -0.204589165508E+04   -0.83446E+02   -0.33043E+01  5251   0.492E+00    0.180E+01
RMM:  13    -0.210892332454E+04   -0.63032E+02   -0.24643E+01  5120   0.397E+00    0.152E+01
RMM:  14    -0.218123640256E+04   -0.72313E+02   -0.35163E+01  4935   0.467E+00    0.168E+01
RMM:  15    -0.225390382363E+04   -0.72667E+02   -0.51741E+01  4812   0.530E+00    0.131E+01
RMM:  16    -0.229331018772E+04   -0.39406E+02   -0.30730E+01  4944   0.403E+00    0.103E+01
RMM:  17    -0.230515501006E+04   -0.11845E+02   -0.96724E+00  5097   0.250E+00    0.514E+00
RMM:  18    -0.231566326850E+04   -0.10508E+02   -0.72189E+00  4542   0.178E+00    0.478E+00
RMM:  19    -0.231991841984E+04   -0.42552E+01   -0.28054E+00  4858   0.131E+00    0.265E+00
RMM:  20    -0.232156820965E+04   -0.16498E+01   -0.13462E+00  5194   0.670E-01    0.451E+00
RMM:  21    -0.232169484978E+04   -0.12664E+00   -0.16216E-01  5602   0.290E-01    0.415E+00
RMM:  22    -0.232169013726E+04    0.47125E-02   -0.28603E-02  5746   0.782E-02    0.418E+00
RMM:  23    -0.232159352478E+04    0.96612E-01   -0.31261E-01  4565   0.310E-01    0.404E+00
RMM:  24    -0.232127572238E+04    0.31780E+00   -0.63571E-01  4533   0.399E-01    0.368E+00
RMM:  25    -0.232126652662E+04    0.91958E-02   -0.12940E-01  4929   0.177E-01    0.325E+00
RMM:  26    -0.232087932923E+04    0.38720E+00   -0.34159E-01  4574   0.298E-01    0.251E+00
RMM:  27    -0.232113684583E+04   -0.25752E+00   -0.38984E-02  4934   0.136E-01    0.240E+00
RMM:  28    -0.232092627012E+04    0.21058E+00   -0.68076E-02  4674   0.132E-01    0.263E+00
RMM:  29    -0.232058989482E+04    0.33638E+00   -0.12279E-01  4655   0.168E-01    0.285E+00
RMM:  30    -0.231948879916E+04    0.11011E+01   -0.58706E-01  4650   0.336E-01    0.343E+00
RMM:  31    -0.232109385970E+04   -0.16051E+01   -0.96737E-01  4564   0.408E-01    0.246E+00
RMM:  32    -0.232245902962E+04   -0.13652E+01   -0.20904E+00  4587   0.588E-01    0.187E+00
RMM:  33    -0.232273432161E+04   -0.27529E+00   -0.99182E-01  4833   0.428E-01    0.141E+00
RMM:  34    -0.232274581759E+04   -0.11496E-01   -0.15579E-01  5123   0.174E-01    0.153E+00
RMM:  35    -0.232275610856E+04   -0.10291E-01   -0.15653E-02  5165   0.476E-02    0.168E+00
RMM:  36    -0.232275266599E+04    0.34426E-02   -0.30989E-03  4399   0.381E-02    0.174E+00
RMM:  37    -0.232275781916E+04   -0.51532E-02   -0.24223E-03  4383   0.248E-02    0.170E+00
RMM:  38    -0.232275611428E+04    0.17049E-02   -0.21792E-03  4614   0.334E-02    0.172E+00
RMM:  39    -0.232275779935E+04   -0.16851E-02   -0.69203E-03  5068   0.511E-02    0.162E+00
RMM:  40    -0.232281139127E+04   -0.53592E-01   -0.39889E-02  4634   0.124E-01    0.208E+00
RMM:  41    -0.232283267752E+04   -0.21286E-01   -0.10290E-01  4741   0.186E-01    0.204E+00
RMM:  42    -0.232287494597E+04   -0.42268E-01   -0.25701E-02  4946   0.128E-01    0.219E+00
RMM:  43    -0.232292168602E+04   -0.46740E-01   -0.12270E-02  4610   0.780E-02    0.196E+00
RMM:  44    -0.232295581795E+04   -0.34132E-01   -0.26926E-02  4555   0.115E-01    0.150E+00
RMM:  45    -0.232297039434E+04   -0.14576E-01   -0.11598E-02  4976   0.880E-02    0.126E+00
RMM:  46    -0.232298816767E+04   -0.17773E-01   -0.96193E-03  4782   0.654E-02    0.104E+00
RMM:  47    -0.232299650641E+04   -0.83387E-02   -0.36936E-03  4941   0.524E-02    0.853E-01
RMM:  48    -0.232300026966E+04   -0.37633E-02   -0.18773E-03  5147   0.297E-02    0.746E-01
RMM:  49    -0.232300261593E+04   -0.23463E-02   -0.13763E-03  4723   0.275E-02    0.665E-01
RMM:  50    -0.232300348360E+04   -0.86768E-03   -0.45200E-04  4621   0.156E-02    0.608E-01
RMM:  51    -0.232300453348E+04   -0.10499E-02   -0.48710E-04  4561   0.155E-02    0.546E-01
RMM:  52    -0.232300577847E+04   -0.12450E-02   -0.12106E-03  4877   0.235E-02    0.432E-01
RMM:  53    -0.232300643736E+04   -0.65889E-03   -0.65465E-04  4952   0.198E-02    0.365E-01
RMM:  54    -0.232300692805E+04   -0.49069E-03   -0.41448E-04  4817   0.138E-02    0.312E-01
RMM:  55    -0.232300719117E+04   -0.26311E-03   -0.20289E-04  4256   0.118E-02    0.268E-01
RMM:  56    -0.232300739135E+04   -0.20019E-03   -0.19293E-04  4300   0.104E-02    0.228E-01
RMM:  57    -0.232300750970E+04   -0.11835E-03   -0.92555E-05  3561   0.894E-03    0.202E-01
RMM:  58    -0.232300759892E+04   -0.89214E-04   -0.67912E-05  3351   0.702E-03    0.180E-01
RMM:  59    -0.232300768996E+04   -0.91043E-04   -0.77398E-05  3418   0.773E-03    0.151E-01
RMM:  60    -0.232300774370E+04   -0.53739E-04   -0.63478E-05  3289   0.713E-03    0.129E-01
RMM:  61    -0.232300779518E+04   -0.51480E-04   -0.64972E-05  3267   0.736E-03    0.105E-01
RMM:  62    -0.232300784123E+04   -0.46051E-04   -0.86184E-05  3639   0.782E-03    0.787E-02
RMM:  63    -0.232300786237E+04   -0.21140E-04   -0.37896E-05  3034   0.646E-03    0.632E-02
RMM:  64    -0.232300788479E+04   -0.22422E-04   -0.47001E-05  3218   0.615E-03    0.435E-02
RMM:  65    -0.232300789695E+04   -0.12160E-04   -0.31752E-05  3014   0.601E-03    0.275E-02
RMM:  66    -0.232300790664E+04   -0.96896E-05   -0.75029E-05  3469   0.692E-03
   1 F= -.23445357E+04 E0= -.23445357E+04  d E =-.234454E+04  mag=     1.9985
