       N       E                     dE             d eps       ncg     rms          rms(c)
DAV:   1     0.121073610129E+05    0.12107E+05   -0.81828E+05  4560   0.138E+03
DAV:   2    -0.122883052852E+04   -0.13336E+05   -0.12816E+05  5480   0.318E+02
DAV:   3    -0.248405218382E+04   -0.12552E+04   -0.12462E+04  5480   0.101E+02
DAV:   4    -0.251008813609E+04   -0.26036E+02   -0.25929E+02  5680   0.177E+01
DAV:   5    -0.251077722571E+04   -0.68909E+00   -0.68793E+00  5680   0.248E+00    0.170E+02
RMM:   6    -0.146951087968E+04    0.10413E+04   -0.18634E+03  4489   0.373E+01    0.726E+01
RMM:   7    -0.163601406472E+04   -0.16650E+03   -0.25417E+02  5009   0.130E+01    0.523E+01
RMM:   8    -0.168477554199E+04   -0.48761E+02   -0.61931E+01  5065   0.735E+00    0.384E+01
RMM:   9    -0.180734086102E+04   -0.12257E+03   -0.63291E+01  4748   0.771E+00    0.259E+01
RMM:  10    -0.195203365599E+04   -0.14469E+03   -0.55548E+01  4794   0.681E+00    0.168E+01
RMM:  11    -0.207677469517E+04   -0.12474E+03   -0.65552E+01  4592   0.601E+00    0.130E+01
RMM:  12    -0.224395380387E+04   -0.16718E+03   -0.16423E+02  4485   0.857E+00    0.653E+00
RMM:  13    -0.228685024948E+04   -0.42896E+02   -0.42205E+01  4523   0.467E+00    0.413E+00
RMM:  14    -0.229824642788E+04   -0.11396E+02   -0.13121E+01  4709   0.287E+00    0.271E+00
RMM:  15    -0.230070970811E+04   -0.24633E+01   -0.28568E+00  4929   0.138E+00    0.197E+00
RMM:  16    -0.230196540798E+04   -0.12557E+01   -0.82294E-01  4615   0.598E-01    0.962E-01
RMM:  17    -0.230283900750E+04   -0.87360E+00   -0.21219E-01  4832   0.416E-01    0.634E-01
RMM:  18    -0.230295091597E+04   -0.11191E+00   -0.42245E-02  4850   0.170E-01    0.431E-01
RMM:  19    -0.230299387550E+04   -0.42960E-01   -0.19663E-02  4492   0.128E-01    0.201E-01
RMM:  20    -0.230302680419E+04   -0.32929E-01   -0.12430E-02  4511   0.885E-02    0.162E-01
RMM:  21    -0.230303878181E+04   -0.11978E-01   -0.55209E-03  4645   0.649E-02    0.867E-02
RMM:  22    -0.230304837343E+04   -0.95916E-02   -0.35409E-03  4525   0.477E-02    0.730E-02
RMM:  23    -0.230305569396E+04   -0.73205E-02   -0.24494E-03  4494   0.438E-02    0.389E-02
RMM:  24    -0.230305839241E+04   -0.26984E-02   -0.10868E-03  4481   0.297E-02    0.236E-02
RMM:  25    -0.230306008302E+04   -0.16906E-02   -0.65131E-04  4074   0.219E-02    0.131E-02
RMM:  26    -0.230306076763E+04   -0.68460E-03   -0.35513E-04  3965   0.181E-02    0.752E-03
RMM:  27    -0.230306101884E+04   -0.25121E-03   -0.14837E-04  3746   0.116E-02    0.529E-03
RMM:  28    -0.230306112615E+04   -0.10731E-03   -0.52816E-05  3638   0.714E-03    0.356E-03
RMM:  29    -0.230306118987E+04   -0.63717E-04   -0.29990E-05  3350   0.505E-03    0.216E-03
RMM:  30    -0.230306120371E+04   -0.13843E-04   -0.82952E-06  2968   0.339E-03    0.129E-03
RMM:  31    -0.230306121077E+04   -0.70647E-05   -0.36861E-06  2549   0.208E-03
   1 F= -.23230681E+04 E0= -.23230681E+04  d E =-.151206E-12  mag=     2.0000
       N       E                     dE             d eps       ncg     rms          rms(c)
DAV:   1    -0.230304736394E+04    0.13840E-01   -0.18307E+00  4400   0.561E-01    0.324E-01
RMM:   2    -0.230304746689E+04   -0.10295E-03   -0.11824E-02  4176   0.397E-02    0.199E-01
RMM:   3    -0.230304707527E+04    0.39162E-03   -0.16999E-03  5017   0.176E-02    0.124E-01
RMM:   4    -0.230304690995E+04    0.16531E-03   -0.53854E-04  3978   0.880E-03    0.382E-02
RMM:   5    -0.230304692012E+04   -0.10168E-04   -0.60507E-05  2921   0.493E-03    0.195E-02
RMM:   6    -0.230304692173E+04   -0.16023E-05   -0.12130E-05  2743   0.224E-03
   2 F= -.23230546E+04 E0= -.23230546E+04  d E =-.322903E-12  mag=     2.0000
       N       E                     dE             d eps       ncg     rms          rms(c)
DAV:   1    -0.230307568315E+04   -0.28763E-01   -0.72966E+00  4480   0.111E+00    0.649E-01
RMM:   2    -0.230307521231E+04    0.47084E-03   -0.41295E-02  4284   0.784E-02    0.390E-01
RMM:   3    -0.230307378189E+04    0.14304E-02   -0.60790E-03  5514   0.349E-02    0.244E-01
RMM:   4    -0.230307314942E+04    0.63247E-03   -0.22171E-03  4608   0.172E-02    0.794E-02
RMM:   5    -0.230307318062E+04   -0.31200E-04   -0.25898E-04  3270   0.893E-03    0.382E-02
RMM:   6    -0.230307319275E+04   -0.12136E-04   -0.45999E-05  2968   0.392E-03    0.301E-02
RMM:   7    -0.230307318655E+04    0.62065E-05   -0.20905E-05  2836   0.300E-03
   3 F= -.23230795E+04 E0= -.23230795E+04  d E =-.160572E-12  mag=     2.0000
       N       E                     dE             d eps       ncg     rms          rms(c)
DAV:   1    -0.230303028141E+04    0.42911E-01   -0.39146E+00  4560   0.771E-01    0.499E-01
RMM:   2    -0.230302863787E+04    0.16435E-02   -0.29458E-02  4158   0.618E-02    0.259E-01
RMM:   3    -0.230302771135E+04    0.92652E-03   -0.39189E-03  5095   0.276E-02    0.126E-01
RMM:   4    -0.230302766955E+04    0.41802E-04   -0.95554E-04  4156   0.114E-02    0.799E-02
RMM:   5    -0.230302762327E+04    0.46285E-04   -0.21812E-04  3183   0.815E-03    0.447E-02
RMM:   6    -0.230302760345E+04    0.19814E-04   -0.64794E-05  3070   0.418E-03    0.189E-02
RMM:   7    -0.230302760761E+04   -0.41623E-05   -0.14271E-05  2879   0.335E-03
   4 F= -.23230346E+04 E0= -.23230346E+04  d E =-.102635E-10  mag=     2.0000
       N       E                     dE             d eps       ncg     rms          rms(c)
DAV:   1    -0.230307074839E+04   -0.43145E-01   -0.86874E+00  4480   0.110E+00    0.820E-01
RMM:   2    -0.230306279288E+04    0.79555E-02   -0.91916E-02  4227   0.995E-02    0.455E-01
RMM:   3    -0.230305895941E+04    0.38335E-02   -0.14969E-02  5362   0.569E-02    0.291E-01
RMM:   4    -0.230305821984E+04    0.73957E-03   -0.45158E-03  5293   0.247E-02    0.123E-01
RMM:   5    -0.230305809225E+04    0.12759E-03   -0.59453E-04  3995   0.894E-03    0.870E-02
RMM:   6    -0.230305801217E+04    0.80082E-04   -0.23204E-04  3340   0.786E-03    0.384E-02
RMM:   7    -0.230305801766E+04   -0.54896E-05   -0.66188E-05  3037   0.470E-03
   5 F= -.23230648E+04 E0= -.23230648E+04  d E =-.670688E-16  mag=     2.0000
       N       E                     dE             d eps       ncg     rms          rms(c)
DAV:   1    -0.230305184760E+04    0.61646E-02   -0.43678E+00  4480   0.767E-01    0.586E-01
RMM:   2    -0.230304796324E+04    0.38844E-02   -0.48204E-02  4232   0.672E-02    0.345E-01
RMM:   3    -0.230304614451E+04    0.18187E-02   -0.62483E-03  4956   0.367E-02    0.205E-01
RMM:   4    -0.230304565540E+04    0.48912E-03   -0.23161E-03  4933   0.162E-02    0.954E-02
RMM:   5    -0.230304559660E+04    0.58798E-04   -0.28245E-04  3248   0.756E-03    0.603E-02
RMM:   6    -0.230304556057E+04    0.36030E-04   -0.10018E-04  3066   0.519E-03    0.266E-02
RMM:   7    -0.230304556561E+04   -0.50457E-05   -0.25797E-05  2866   0.333E-03
   6 F= -.23230527E+04 E0= -.23230527E+04  d E =-.136076E-14  mag=     2.0000
       N       E                     dE             d eps       ncg     rms          rms(c)
DAV:   1    -0.230306779580E+04   -0.22235E-01   -0.81553E+00  4480   0.101E+00    0.682E-01
RMM:   2    -0.230306670408E+04    0.10917E-02   -0.55074E-02  4382   0.816E-02    0.407E-01
RMM:   3    -0.230306414023E+04    0.25638E-02   -0.63209E-03  5191   0.362E-02    0.212E-01
RMM:   4    -0.230306351546E+04    0.62477E-03   -0.27697E-03  4740   0.173E-02    0.979E-02
RMM:   5    -0.230306342979E+04    0.85675E-04   -0.35168E-04  3442   0.124E-02    0.529E-02
RMM:   6    -0.230306341847E+04    0.11313E-04   -0.10183E-04  3149   0.478E-03    0.313E-02
RMM:   7    -0.230306341517E+04    0.33033E-05   -0.28938E-05  2940   0.378E-03
   7 F= -.23230701E+04 E0= -.23230701E+04  d E =-.576287E-11  mag=     2.0000
       N       E                     dE             d eps       ncg     rms          rms(c)
DAV:   1    -0.230305556670E+04    0.78518E-02   -0.40775E+00  4560   0.768E-01    0.430E-01
RMM:   2    -0.230305526815E+04    0.29856E-03   -0.25803E-02  4259   0.549E-02    0.262E-01
RMM:   3    -0.230305428961E+04    0.97854E-03   -0.28460E-03  4872   0.256E-02    0.149E-01
RMM:   4    -0.230305404053E+04    0.24907E-03   -0.14022E-03  4405   0.126E-02    0.495E-02
RMM:   5    -0.230305400375E+04    0.36786E-04   -0.10855E-04  3087   0.758E-03    0.228E-02
RMM:   6    -0.230305400410E+04   -0.35272E-06   -0.28069E-05  2868   0.293E-03
   8 F= -.23230610E+04 E0= -.23230610E+04  d E =-.134016E-13  mag=     2.0000
       N       E                     dE             d eps       ncg     rms          rms(c)
DAV:   1    -0.230306303753E+04   -0.90338E-02   -0.77904E+00  4480   0.106E+00    0.555E-01
RMM:   2    -0.230306183519E+04    0.12023E-02   -0.27070E-02  4023   0.632E-02    0.307E-01
RMM:   3    -0.230306090416E+04    0.93103E-03   -0.41506E-03  5026   0.300E-02    0.167E-01
RMM:   4    -0.230306087667E+04    0.27484E-04   -0.14218E-03  4522   0.158E-02    0.683E-02
RMM:   5    -0.230306085045E+04    0.26226E-04   -0.13628E-04  3127   0.584E-03    0.365E-02
RMM:   6    -0.230306084129E+04    0.91614E-05   -0.51044E-05  2952   0.380E-03
   9 F= -.23230676E+04 E0= -.23230676E+04  d E =-.407539E-14  mag=     2.0000
       N       E                     dE             d eps       ncg     rms          rms(c)
DAV:   1    -0.230305519188E+04    0.56586E-02   -0.40583E+00  4560   0.859E-01    0.488E-01
RMM:   2    -0.230305296142E+04    0.22305E-02   -0.20657E-02  4021   0.573E-02    0.261E-01
RMM:   3    -0.230305203689E+04    0.92453E-03   -0.39033E-03  4657   0.316E-02    0.111E-01
RMM:   4    -0.230305217530E+04   -0.13840E-03   -0.10299E-03  3735   0.111E-02    0.819E-02
RMM:   5    -0.230305212329E+04    0.52010E-04   -0.15253E-04  3041   0.844E-03    0.528E-02
RMM:   6    -0.230305210993E+04    0.13352E-04   -0.82574E-05  3115   0.392E-03    0.214E-02
RMM:   7    -0.230305211209E+04   -0.21607E-05   -0.22885E-05  2767   0.317E-03
  10 F= -.23230589E+04 E0= -.23230589E+04  d E =-.116432E-14  mag=     2.0000
       N       E                     dE             d eps       ncg     rms          rms(c)
DAV:   1    -0.230304576669E+04    0.63432E-02   -0.87944E+00  4480   0.124E+00    0.806E-01
RMM:   2    -0.230303587275E+04    0.98939E-02   -0.74411E-02  4256   0.981E-02    0.439E-01
RMM:   3    -0.230303250629E+04    0.33665E-02   -0.11261E-02  4882   0.556E-02    0.208E-01
RMM:   4    -0.230303268275E+04   -0.17646E-03   -0.42574E-03  4238   0.202E-02    0.126E-01
RMM:   5    -0.230303251753E+04    0.16522E-03   -0.43094E-04  3543   0.158E-02    0.831E-02
RMM:   6    -0.230303247413E+04    0.43401E-04   -0.28165E-04  3493   0.683E-03    0.368E-02
RMM:   7    -0.230303248387E+04   -0.97410E-05   -0.46884E-05  2980   0.451E-03
  11 F= -.23230395E+04 E0= -.23230395E+04  d E =-.167334E-12  mag=     2.0000
       N       E                     dE             d eps       ncg     rms          rms(c)
DAV:   1    -0.230305642872E+04   -0.23955E-01   -0.45106E+00  4480   0.924E-01    0.642E-01
RMM:   2    -0.230305121130E+04    0.52174E-02   -0.50794E-02  4146   0.795E-02    0.356E-01
RMM:   3    -0.230304904118E+04    0.21701E-02   -0.67546E-03  5310   0.389E-02    0.200E-01
RMM:   4    -0.230304887600E+04    0.16518E-03   -0.25576E-03  4851   0.178E-02    0.913E-02
RMM:   5    -0.230304875702E+04    0.11898E-03   -0.31846E-04  3590   0.691E-03    0.554E-02
RMM:   6    -0.230304872325E+04    0.33769E-04   -0.10596E-04  3152   0.487E-03    0.227E-02
RMM:   7    -0.230304872715E+04   -0.39035E-05   -0.14894E-05  2759   0.273E-03
  12 F= -.23230559E+04 E0= -.23230559E+04  d E =-.284182E-13  mag=     2.0000
       N       E                     dE             d eps       ncg     rms          rms(c)
DAV:   1    -0.230303574991E+04    0.12973E-01   -0.85338E+00  4480   0.134E+00    0.702E-01
RMM:   2    -0.230303371203E+04    0.20379E-02   -0.58338E-02  4295   0.896E-02    0.392E-01
RMM:   3    -0.230303148190E+04    0.22301E-02   -0.71004E-03  5032   0.402E-02    0.230E-01
RMM:   4    -0.230303113470E+04    0.34720E-03   -0.34804E-03  4706   0.207E-02    0.894E-02
RMM:   5    -0.230303102631E+04    0.10839E-03   -0.37829E-04  3716   0.824E-03    0.370E-02
RMM:   6    -0.230303101266E+04    0.13654E-04   -0.53242E-05  2961   0.399E-03    0.219E-02
RMM:   7    -0.230303100651E+04    0.61517E-05   -0.20876E-05  2831   0.257E-03
  13 F= -.23230376E+04 E0= -.23230376E+04  d E =-.115396E-14  mag=     2.0000
       N       E                     dE             d eps       ncg     rms          rms(c)
DAV:   1    -0.230306193904E+04   -0.30926E-01   -0.25344E+00  4480   0.672E-01    0.410E-01
RMM:   2    -0.230306153931E+04    0.39973E-03   -0.20182E-02  4012   0.521E-02    0.233E-01
RMM:   3    -0.230306068021E+04    0.85910E-03   -0.22726E-03  5078   0.211E-02    0.122E-01
RMM:   4    -0.230306065055E+04    0.29655E-04   -0.90481E-04  3906   0.120E-02    0.495E-02
RMM:   5    -0.230306062116E+04    0.29392E-04   -0.10331E-04  3162   0.532E-03    0.207E-02
RMM:   6    -0.230306061752E+04    0.36378E-05   -0.19942E-05  2765   0.262E-03
  14 F= -.23230675E+04 E0= -.23230675E+04  d E =-.720239E-14  mag=     2.0000
       N       E                     dE             d eps       ncg     rms          rms(c)
DAV:   1    -0.230306034862E+04    0.27254E-03   -0.11570E+00  4480   0.452E-01    0.357E-01
RMM:   2    -0.230306016118E+04    0.18744E-03   -0.42888E-03  4012   0.289E-02    0.214E-01
RMM:   3    -0.230306013123E+04    0.29955E-04   -0.12127E-03  4553   0.142E-02    0.113E-01
RMM:   4    -0.230306001636E+04    0.11487E-03   -0.38254E-04  3716   0.891E-03    0.310E-02
RMM:   5    -0.230306000984E+04    0.65197E-05   -0.34943E-05  2851   0.370E-03
  15 F= -.23230669E+04 E0= -.23230669E+04  d E =-.173393E-14  mag=     2.0000
       N       E                     dE             d eps       ncg     rms          rms(c)
DAV:   1    -0.230306298272E+04   -0.29664E-02   -0.59047E-01  4720   0.325E-01    0.270E-01
RMM:   2    -0.230306284268E+04    0.14004E-03   -0.38350E-03  3895   0.249E-02    0.166E-01
RMM:   3    -0.230306279103E+04    0.51647E-04   -0.86631E-04  4527   0.113E-02    0.120E-01
RMM:   4    -0.230306263759E+04    0.15344E-03   -0.31563E-04  3507   0.766E-03    0.284E-02
RMM:   5    -0.230306264228E+04   -0.46882E-05   -0.38238E-05  2809   0.356E-03
  16 F= -.23230691E+04 E0= -.23230691E+04  d E =-.323458E-14  mag=     2.0000
       N       E                     dE             d eps       ncg     rms          rms(c)
DAV:   1    -0.230305271529E+04    0.99223E-02   -0.11730E+00  5000   0.453E-01    0.428E-01
RMM:   2    -0.230305163074E+04    0.10846E-02   -0.14779E-02  4421   0.459E-02    0.280E-01
RMM:   3    -0.230305087668E+04    0.75406E-03   -0.25413E-03  5029   0.224E-02    0.183E-01
RMM:   4    -0.230305060044E+04    0.27624E-03   -0.69247E-04  4129   0.104E-02    0.610E-02
RMM:   5    -0.230305060733E+04   -0.68869E-05   -0.11283E-04  3073   0.597E-03    0.190E-02
RMM:   6    -0.230305060531E+04    0.20148E-05   -0.21873E-05  2850   0.310E-03
  17 F= -.23230579E+04 E0= -.23230579E+04  d E =-.401554E-14  mag=     2.0000
       N       E                     dE             d eps       ncg     rms          rms(c)
DAV:   1    -0.230306116837E+04   -0.10561E-01   -0.62656E-01  5080   0.349E-01    0.427E-01
RMM:   2    -0.230305867088E+04    0.24975E-02   -0.13053E-02  4559   0.419E-02    0.267E-01
RMM:   3    -0.230305803316E+04    0.63772E-03   -0.26064E-03  4711   0.228E-02    0.172E-01
RMM:   4    -0.230305770067E+04    0.33249E-03   -0.68059E-04  4123   0.991E-03    0.673E-02
RMM:   5    -0.230305769071E+04    0.99608E-05   -0.14078E-04  3071   0.577E-03    0.233E-02
RMM:   6    -0.230305768622E+04    0.44878E-05   -0.27683E-05  2783   0.328E-03
  18 F= -.23230643E+04 E0= -.23230643E+04  d E =-.148902E-14  mag=     2.0000
       N       E                     dE             d eps       ncg     rms          rms(c)
DAV:   1    -0.230304846804E+04    0.92227E-02   -0.12321E+00  5080   0.446E-01    0.543E-01
RMM:   2    -0.230304470843E+04    0.37596E-02   -0.18876E-02  4531   0.503E-02    0.315E-01
RMM:   3    -0.230304394109E+04    0.76734E-03   -0.33681E-03  4740   0.281E-02    0.211E-01
RMM:   4    -0.230304349391E+04    0.44719E-03   -0.12599E-03  4561   0.137E-02    0.854E-02
RMM:   5    -0.230304345715E+04    0.36759E-04   -0.21941E-04  3293   0.734E-03    0.299E-02
RMM:   6    -0.230304345012E+04    0.70286E-05   -0.46167E-05  2968   0.395E-03
  19 F= -.23230505E+04 E0= -.23230505E+04  d E =-.958622E-14  mag=     2.0000
       N       E                     dE             d eps       ncg     rms          rms(c)
DAV:   1    -0.230307947170E+04   -0.36015E-01   -0.56251E-01  4920   0.344E-01    0.288E-01
RMM:   2    -0.230307894930E+04    0.52240E-03   -0.74285E-03  4063   0.341E-02    0.164E-01
RMM:   3    -0.230307860447E+04    0.34483E-03   -0.10172E-03  4144   0.165E-02    0.844E-02
RMM:   4    -0.230307861626E+04   -0.11794E-04   -0.39367E-04  3510   0.777E-03    0.454E-02
RMM:   5    -0.230307859355E+04    0.22709E-04   -0.65123E-05  2954   0.447E-03    0.286E-02
RMM:   6    -0.230307858363E+04    0.99252E-05   -0.29323E-05  2788   0.301E-03
  20 F= -.23230850E+04 E0= -.23230850E+04  d E =-.134355E-13  mag=     2.0000
       N       E                     dE             d eps       ncg     rms          rms(c)
DAV:   1    -0.230303861507E+04    0.39978E-01   -0.10243E+00  5080   0.445E-01    0.323E-01
RMM:   2    -0.230303854588E+04    0.69191E-04   -0.11012E-02  4323   0.443E-02    0.193E-01
RMM:   3    -0.230303819114E+04    0.35474E-03   -0.16016E-03  4779   0.193E-02    0.137E-01
RMM:   4    -0.230303795635E+04    0.23479E-03   -0.50492E-04  3964   0.884E-03    0.455E-02
RMM:   5    -0.230303796289E+04   -0.65410E-05   -0.74732E-05  2932   0.481E-03
  21 F= -.23230456E+04 E0= -.23230456E+04  d E =-.138796E-14  mag=     2.0000
       N       E                     dE             d eps       ncg     rms          rms(c)
DAV:   1    -0.230305455879E+04   -0.16602E-01   -0.51371E-01  4440   0.314E-01    0.209E-01
RMM:   2    -0.230305461807E+04   -0.59285E-04   -0.51455E-03  4389   0.286E-02    0.138E-01
RMM:   3    -0.230305432974E+04    0.28833E-03   -0.74349E-04  4484   0.121E-02    0.872E-02
RMM:   4    -0.230305424821E+04    0.81533E-04   -0.19937E-04  3354   0.571E-03    0.241E-02
RMM:   5    -0.230305424775E+04    0.46195E-06   -0.21322E-05  2851   0.373E-03
  22 F= -.23230615E+04 E0= -.23230615E+04  d E =-.879510E-14  mag=     2.0000
       N       E                     dE             d eps       ncg     rms          rms(c)
DAV:   1    -0.230306574832E+04   -0.11500E-01   -0.10584E+00  4480   0.452E-01    0.256E-01
RMM:   2    -0.230306618707E+04   -0.43875E-03   -0.67193E-03  4281   0.320E-02    0.162E-01
RMM:   3    -0.230306593858E+04    0.24848E-03   -0.10337E-03  4579   0.150E-02    0.108E-01
RMM:   4    -0.230306587398E+04    0.64609E-04   -0.35001E-04  3806   0.791E-03    0.368E-02
RMM:   5    -0.230306589325E+04   -0.19275E-04   -0.35825E-05  2922   0.425E-03    0.271E-02
RMM:   6    -0.230306589082E+04    0.24265E-05   -0.14333E-05  2787   0.266E-03
  23 F= -.23230724E+04 E0= -.23230724E+04  d E =-.260676E-14  mag=     2.0000
       N       E                     dE             d eps       ncg     rms          rms(c)
DAV:   1    -0.230306013826E+04    0.57550E-02   -0.52162E-01  4480   0.311E-01    0.140E-01
RMM:   2    -0.230306035004E+04   -0.21178E-03   -0.25515E-03  3746   0.207E-02    0.878E-02
RMM:   3    -0.230306033227E+04    0.17771E-04   -0.20129E-04  3247   0.748E-03    0.587E-02
RMM:   4    -0.230306033145E+04    0.81692E-06   -0.13692E-04  3008   0.501E-03    0.298E-02
RMM:   5    -0.230306032817E+04    0.32863E-05   -0.30115E-05  2791   0.330E-03
  24 F= -.23230678E+04 E0= -.23230678E+04  d E =-.123833E-13  mag=     2.0000
       N       E                     dE             d eps       ncg     rms          rms(c)
DAV:   1    -0.230306152430E+04   -0.11928E-02   -0.10406E+00  4520   0.443E-01    0.307E-01
RMM:   2    -0.230306162641E+04   -0.10211E-03   -0.59863E-03  4165   0.322E-02    0.194E-01
RMM:   3    -0.230306137324E+04    0.25317E-03   -0.12448E-03  4576   0.157E-02    0.128E-01
RMM:   4    -0.230306120847E+04    0.16477E-03   -0.50787E-04  4058   0.910E-03    0.612E-02
RMM:   5    -0.230306121745E+04   -0.89734E-05   -0.14993E-04  3256   0.590E-03    0.402E-02
RMM:   6    -0.230306122124E+04   -0.37903E-05   -0.25129E-05  2806   0.345E-03
  25 F= -.23230676E+04 E0= -.23230676E+04  d E =-.166738E-14  mag=     2.0000
