       N       E                     dE             d eps       ncg     rms          rms(c)
DAV:   1     0.131099432587E+05    0.13110E+05   -0.84420E+05  4536   0.144E+03
DAV:   2    -0.101979169539E+04   -0.14130E+05   -0.13511E+05  4952   0.331E+02
DAV:   3    -0.248683239075E+04   -0.14670E+04   -0.14485E+04  5568   0.115E+02
DAV:   4    -0.253189737528E+04   -0.45065E+02   -0.44813E+02  6696   0.288E+01
DAV:   5    -0.253280030085E+04   -0.90293E+00   -0.90064E+00  6176   0.345E+00    0.170E+02
RMM:   6    -0.150136134424E+04    0.10314E+04   -0.19594E+03  4481   0.383E+01    0.742E+01
RMM:   7    -0.169854293807E+04   -0.19718E+03   -0.31937E+02  5308   0.152E+01    0.661E+01
RMM:   8    -0.170743958056E+04   -0.88966E+01   -0.10610E+02  5382   0.909E+00    0.481E+01
RMM:   9    -0.176110896184E+04   -0.53669E+02   -0.73293E+01  4975   0.776E+00    0.402E+01
RMM:  10    -0.185878049611E+04   -0.97672E+02   -0.61226E+01  5346   0.770E+00    0.333E+01
RMM:  11    -0.195386701853E+04   -0.95087E+02   -0.41629E+01  5483   0.586E+00    0.295E+01
RMM:  12    -0.200486533414E+04   -0.50998E+02   -0.22373E+01  5404   0.389E+00    0.202E+01
RMM:  13    -0.208554279943E+04   -0.80677E+02   -0.30682E+01  4836   0.439E+00    0.141E+01
RMM:  14    -0.218957839970E+04   -0.10404E+03   -0.64161E+01  4498   0.600E+00    0.101E+01
RMM:  15    -0.229234512954E+04   -0.10277E+03   -0.97520E+01  4608   0.685E+00    0.645E+00
RMM:  16    -0.231422173584E+04   -0.21877E+02   -0.23899E+01  4646   0.415E+00    0.468E+00
RMM:  17    -0.232270292278E+04   -0.84812E+01   -0.10646E+01  4764   0.207E+00    0.354E+00
RMM:  18    -0.232604985168E+04   -0.33469E+01   -0.30009E+00  4803   0.136E+00    0.181E+00
RMM:  19    -0.232780604150E+04   -0.17562E+01   -0.12378E+00  4858   0.658E-01    0.157E+00
RMM:  20    -0.232843952731E+04   -0.63349E+00   -0.43089E-01  4888   0.472E-01    0.917E-01
RMM:  21    -0.232867908148E+04   -0.23955E+00   -0.16681E-01  4683   0.240E-01    0.661E-01
RMM:  22    -0.232873791526E+04   -0.58834E-01   -0.41896E-02  4809   0.155E-01    0.415E-01
RMM:  23    -0.232879066927E+04   -0.52754E-01   -0.37265E-02  4531   0.116E-01    0.296E-01
RMM:  24    -0.232881257557E+04   -0.21906E-01   -0.14046E-02  4635   0.885E-02    0.241E-01
RMM:  25    -0.232882315115E+04   -0.10576E-01   -0.78271E-03  4857   0.538E-02    0.180E-01
RMM:  26    -0.232883087276E+04   -0.77216E-02   -0.64999E-03  4675   0.512E-02    0.123E-01
RMM:  27    -0.232883471340E+04   -0.38406E-02   -0.37345E-03  4907   0.375E-02    0.875E-02
RMM:  28    -0.232883643547E+04   -0.17221E-02   -0.21493E-03  4512   0.291E-02    0.607E-02
RMM:  29    -0.232883722162E+04   -0.78615E-03   -0.13985E-03  4406   0.197E-02    0.356E-02
RMM:  30    -0.232883740384E+04   -0.18222E-03   -0.51298E-04  4099   0.138E-02    0.184E-02
RMM:  31    -0.232883745227E+04   -0.48425E-04   -0.13418E-04  3495   0.712E-03    0.147E-02
RMM:  32    -0.232883748666E+04   -0.34394E-04   -0.74302E-05  3112   0.563E-03    0.905E-03
RMM:  33    -0.232883751943E+04   -0.32770E-04   -0.12971E-05  2933   0.375E-03    0.681E-03
RMM:  34    -0.232883753267E+04   -0.13236E-04   -0.25876E-05  3019   0.347E-03    0.288E-03
RMM:  35    -0.232883754786E+04   -0.15190E-04   -0.45090E-06  2640   0.249E-03    0.227E-03
RMM:  36    -0.232883755422E+04   -0.63675E-05   -0.33275E-06  2605   0.193E-03
   1 F= -.23502379E+04 E0= -.23502379E+04  d E =-.235024E+04  mag=     3.9992
       N       E                     dE             d eps       ncg     rms          rms(c)
DAV:   1    -0.232873368880E+04    0.10386E+00   -0.38896E+01  4880   0.446E+00    0.220E+00
RMM:   2    -0.232971210975E+04   -0.97842E+00   -0.90064E+00  6689   0.149E+00    0.359E+00
RMM:   3    -0.232955238836E+04    0.15972E+00   -0.82601E-01  6298   0.496E-01    0.107E+00
RMM:   4    -0.232954931716E+04    0.30712E-02   -0.10550E-01  6157   0.117E-01    0.779E-01
RMM:   5    -0.232954445573E+04    0.48614E-02   -0.15125E-02  5966   0.533E-02    0.638E-01
RMM:   6    -0.232954124721E+04    0.32085E-02   -0.12890E-02  5872   0.491E-02    0.444E-01
RMM:   7    -0.232954029925E+04    0.94796E-03   -0.64835E-03  5785   0.370E-02    0.394E-01
RMM:   8    -0.232953892523E+04    0.13740E-02   -0.21354E-03  5233   0.206E-02    0.109E-01
RMM:   9    -0.232953886380E+04    0.61435E-04   -0.43378E-04  3502   0.110E-02    0.697E-02
RMM:  10    -0.232953886132E+04    0.24812E-05   -0.19167E-04  3258   0.770E-03    0.299E-02
RMM:  11    -0.232953887303E+04   -0.11717E-04   -0.65606E-05  3125   0.582E-03    0.178E-02
RMM:  12    -0.232953888198E+04   -0.89435E-05   -0.39180E-05  3055   0.485E-03
   2 F= -.23509419E+04 E0= -.23509419E+04  d E =-.704000E+00  mag=     3.9999
       N       E                     dE             d eps       ncg     rms          rms(c)
DAV:   1    -0.232848537283E+04    0.10535E+01   -0.61213E+01  4616   0.591E+00    0.273E+00
RMM:   2    -0.233013824459E+04   -0.16529E+01   -0.15881E+01  6678   0.204E+00    0.418E+00
RMM:   3    -0.232992723096E+04    0.21101E+00   -0.14029E+00  5862   0.691E-01    0.161E+00
RMM:   4    -0.232991861152E+04    0.86194E-02   -0.17328E-01  6206   0.162E-01    0.119E+00
RMM:   5    -0.232990422877E+04    0.14383E-01   -0.27346E-02  6166   0.717E-02    0.794E-01
RMM:   6    -0.232990034855E+04    0.38802E-02   -0.24036E-02  5973   0.644E-02    0.703E-01
RMM:   7    -0.232989707121E+04    0.32773E-02   -0.14041E-02  6010   0.548E-02    0.431E-01
RMM:   8    -0.232989457605E+04    0.24952E-02   -0.33500E-03  5595   0.273E-02    0.104E-01
RMM:   9    -0.232989449347E+04    0.82580E-04   -0.68032E-04  4269   0.134E-02    0.782E-02
RMM:  10    -0.232989443335E+04    0.60129E-04   -0.16039E-04  3305   0.829E-03    0.293E-02
RMM:  11    -0.232989441851E+04    0.14836E-04   -0.44941E-05  3052   0.564E-03    0.135E-02
RMM:  12    -0.232989441188E+04    0.66301E-05   -0.23908E-05  3035   0.468E-03
   3 F= -.23513013E+04 E0= -.23513013E+04  d E =-.106341E+01  mag=     4.0000
       N       E                     dE             d eps       ncg     rms          rms(c)
DAV:   1    -0.233001568688E+04   -0.12127E+00   -0.24274E+01  4624   0.435E+00    0.190E+00
RMM:   2    -0.233037748278E+04   -0.36180E+00   -0.36843E+00  6322   0.119E+00    0.200E+00
RMM:   3    -0.233034814320E+04    0.29340E-01   -0.33962E-01  6039   0.413E-01    0.122E+00
RMM:   4    -0.233033418803E+04    0.13955E-01   -0.43964E-02  6187   0.104E-01    0.648E-01
RMM:   5    -0.233033261337E+04    0.15747E-02   -0.13015E-02  5850   0.605E-02    0.641E-01
RMM:   6    -0.233032941633E+04    0.31970E-02   -0.10268E-02  5828   0.549E-02    0.403E-01
RMM:   7    -0.233032836922E+04    0.10471E-02   -0.44892E-03  5794   0.380E-02    0.275E-01
RMM:   8    -0.233032739978E+04    0.96944E-03   -0.11548E-03  5235   0.179E-02    0.724E-02
RMM:   9    -0.233032728858E+04    0.11120E-03   -0.20525E-04  4037   0.983E-03    0.274E-02
RMM:  10    -0.233032725751E+04    0.31073E-04   -0.72691E-05  3527   0.714E-03    0.142E-02
RMM:  11    -0.233032724412E+04    0.13384E-04   -0.32339E-05  3302   0.601E-03    0.741E-03
RMM:  12    -0.233032723987E+04    0.42559E-05   -0.15274E-05  2912   0.485E-03
   4 F= -.23517335E+04 E0= -.23517335E+04  d E =-.432178E+00  mag=     4.0000
       N       E                     dE             d eps       ncg     rms          rms(c)
DAV:   1    -0.233026407711E+04    0.63167E-01   -0.12165E+01  4656   0.312E+00    0.133E+00
RMM:   2    -0.233043632412E+04   -0.17225E+00   -0.17949E+00  6312   0.831E-01    0.132E+00
RMM:   3    -0.233042717038E+04    0.91537E-02   -0.16806E-01  6100   0.287E-01    0.898E-01
RMM:   4    -0.233041932677E+04    0.78436E-02   -0.21598E-02  6176   0.729E-02    0.457E-01
RMM:   5    -0.233041855267E+04    0.77410E-03   -0.62144E-03  5634   0.421E-02    0.459E-01
RMM:   6    -0.233041690379E+04    0.16489E-02   -0.48166E-03  5707   0.376E-02    0.262E-01
RMM:   7    -0.233041643661E+04    0.46718E-03   -0.21139E-03  5595   0.276E-02    0.175E-01
RMM:   8    -0.233041601798E+04    0.41863E-03   -0.55995E-04  4525   0.133E-02    0.507E-02
RMM:   9    -0.233041596109E+04    0.56896E-04   -0.95309E-05  3433   0.725E-03    0.196E-02
RMM:  10    -0.233041594523E+04    0.15860E-04   -0.37902E-05  3121   0.558E-03    0.100E-02
RMM:  11    -0.233041593990E+04    0.53245E-05   -0.17224E-05  2946   0.493E-03
   5 F= -.23518221E+04 E0= -.23518221E+04  d E =-.520752E+00  mag=     4.0000
       N       E                     dE             d eps       ncg     rms          rms(c)
DAV:   1    -0.233035895373E+04    0.56992E-01   -0.34504E+01  4576   0.551E+00    0.207E+00
RMM:   2    -0.233073800024E+04   -0.37905E+00   -0.40036E+00  6170   0.119E+00    0.167E+00
RMM:   3    -0.233077140005E+04   -0.33400E-01   -0.47649E-01  5961   0.479E-01    0.191E+00
RMM:   4    -0.233073450762E+04    0.36892E-01   -0.52535E-02  6268   0.128E-01    0.586E-01
RMM:   5    -0.233073350983E+04    0.99779E-03   -0.18065E-02  5719   0.753E-02    0.610E-01
RMM:   6    -0.233072923089E+04    0.42789E-02   -0.10447E-02  5931   0.608E-02    0.283E-01
RMM:   7    -0.233072815111E+04    0.10798E-02   -0.28065E-03  5447   0.343E-02    0.158E-01
RMM:   8    -0.233072791982E+04    0.23130E-03   -0.74748E-04  4719   0.187E-02    0.994E-02
RMM:   9    -0.233072769175E+04    0.22806E-03   -0.29201E-04  4453   0.119E-02    0.412E-02
RMM:  10    -0.233072760587E+04    0.85881E-04   -0.12406E-04  4260   0.844E-03    0.222E-02
RMM:  11    -0.233072756398E+04    0.41889E-04   -0.58122E-05  3738   0.686E-03    0.121E-02
RMM:  12    -0.233072754984E+04    0.14142E-04   -0.29593E-05  3159   0.610E-03    0.671E-03
RMM:  13    -0.233072754796E+04    0.18868E-05   -0.22709E-05  3126   0.503E-03
   6 F= -.23521328E+04 E0= -.23521328E+04  d E =-.310740E+00  mag=     4.0000
       N       E                     dE             d eps       ncg     rms          rms(c)
DAV:   1    -0.233072497076E+04    0.25791E-02   -0.73226E-01  4976   0.791E-01    0.298E-01
RMM:   2    -0.233073270053E+04   -0.77298E-02   -0.82252E-02  6225   0.166E-01    0.224E-01
RMM:   3    -0.233073361837E+04   -0.91784E-03   -0.97196E-03  5839   0.678E-02    0.288E-01
RMM:   4    -0.233073277053E+04    0.84784E-03   -0.10357E-03  4996   0.182E-02    0.744E-02
RMM:   5    -0.233073270117E+04    0.69363E-04   -0.34275E-04  4728   0.122E-02    0.517E-02
RMM:   6    -0.233073269859E+04    0.25825E-05   -0.18019E-04  3826   0.972E-03    0.498E-02
RMM:   7    -0.233073265929E+04    0.39303E-04   -0.45597E-05  3046   0.612E-03    0.138E-02
RMM:   8    -0.233073265551E+04    0.37774E-05   -0.10633E-05  2897   0.380E-03
   7 F= -.23521379E+04 E0= -.23521379E+04  d E =-.315787E+00  mag=     4.0000
       N       E                     dE             d eps       ncg     rms          rms(c)
DAV:   1    -0.233048596092E+04    0.24670E+00   -0.20256E+01  4576   0.382E+00    0.154E+00
RMM:   2    -0.233085205545E+04   -0.36609E+00   -0.36722E+00  6332   0.909E-01    0.183E+00
RMM:   3    -0.233085267312E+04   -0.61767E-03   -0.42777E-01  6186   0.384E-01    0.106E+00
RMM:   4    -0.233084206934E+04    0.10604E-01   -0.39297E-02  5746   0.856E-02    0.419E-01
RMM:   5    -0.233084086119E+04    0.12081E-02   -0.85771E-03  5847   0.526E-02    0.416E-01
RMM:   6    -0.233083886176E+04    0.19994E-02   -0.59913E-03  6082   0.424E-02    0.237E-01
RMM:   7    -0.233083824835E+04    0.61342E-03   -0.14180E-03  5563   0.242E-02    0.108E-01
RMM:   8    -0.233083810838E+04    0.13997E-03   -0.41115E-04  4175   0.122E-02    0.807E-02
RMM:   9    -0.233083801798E+04    0.90397E-04   -0.12784E-04  3583   0.773E-03    0.354E-02
RMM:  10    -0.233083797510E+04    0.42885E-04   -0.91177E-05  3428   0.703E-03    0.165E-02
RMM:  11    -0.233083795909E+04    0.16011E-04   -0.37545E-05  3179   0.568E-03    0.849E-03
RMM:  12    -0.233083795699E+04    0.20934E-05   -0.15994E-05  2915   0.474E-03
   8 F= -.23522439E+04 E0= -.23522439E+04  d E =-.106018E+00  mag=     4.0000
       N       E                     dE             d eps       ncg     rms          rms(c)
DAV:   1    -0.233083767782E+04    0.28127E-03   -0.27698E-02  5504   0.141E-01    0.578E-02
RMM:   2    -0.233083817208E+04   -0.49426E-03   -0.49173E-03  6312   0.353E-02    0.660E-02
RMM:   3    -0.233083818208E+04   -0.10002E-04   -0.56165E-04  3086   0.147E-02    0.443E-02
RMM:   4    -0.233083816579E+04    0.16299E-04   -0.54189E-05  2972   0.438E-03    0.170E-02
RMM:   5    -0.233083816617E+04   -0.38726E-06   -0.12195E-05  2901   0.235E-03
   9 F= -.23522441E+04 E0= -.23522441E+04  d E =-.106195E+00  mag=     4.0000
       N       E                     dE             d eps       ncg     rms          rms(c)
DAV:   1    -0.233067734371E+04    0.16082E+00   -0.10208E+01  4544   0.243E+00    0.112E+00
RMM:   2    -0.233091721701E+04   -0.23987E+00   -0.24004E+00  6550   0.633E-01    0.128E+00
RMM:   3    -0.233092278247E+04   -0.55655E-02   -0.26944E-01  6364   0.265E-01    0.749E-01
RMM:   4    -0.233091881113E+04    0.39713E-02   -0.26082E-02  5957   0.569E-02    0.296E-01
RMM:   5    -0.233091827088E+04    0.54025E-03   -0.25337E-03  5541   0.245E-02    0.276E-01
RMM:   6    -0.233091749576E+04    0.77512E-03   -0.21937E-03  5581   0.232E-02    0.161E-01
RMM:   7    -0.233091731931E+04    0.17645E-03   -0.86070E-04  5182   0.161E-02    0.878E-02
RMM:   8    -0.233091724378E+04    0.75528E-04   -0.28817E-04  3159   0.103E-02    0.609E-02
RMM:   9    -0.233091720623E+04    0.37551E-04   -0.60247E-05  2977   0.565E-03    0.210E-02
RMM:  10    -0.233091720123E+04    0.50012E-05   -0.21017E-05  2940   0.384E-03
  10 F= -.23523230E+04 E0= -.23523230E+04  d E =-.789395E-01  mag=     4.0000
       N       E                     dE             d eps       ncg     rms          rms(c)
DAV:   1    -0.233023467458E+04    0.68253E+00   -0.30752E+01  4512   0.424E+00    0.197E+00
RMM:   2    -0.233099065740E+04   -0.75598E+00   -0.74795E+00  6560   0.113E+00    0.240E+00
RMM:   3    -0.233098396434E+04    0.66931E-02   -0.82563E-01  6371   0.458E-01    0.118E+00
RMM:   4    -0.233097580633E+04    0.81580E-02   -0.82526E-02  6206   0.988E-02    0.511E-01
RMM:   5    -0.233097439721E+04    0.14091E-02   -0.78011E-03  6019   0.414E-02    0.481E-01
RMM:   6    -0.233097210439E+04    0.22928E-02   -0.65280E-03  5976   0.395E-02    0.279E-01
RMM:   7    -0.233097152717E+04    0.57722E-03   -0.28669E-03  5626   0.275E-02    0.149E-01
RMM:   8    -0.233097133576E+04    0.19140E-03   -0.84376E-04  4212   0.163E-02    0.111E-01
RMM:   9    -0.233097120345E+04    0.13231E-03   -0.17942E-04  3118   0.807E-03    0.329E-02
RMM:  10    -0.233097119254E+04    0.10910E-04   -0.57754E-05  2984   0.553E-03    0.144E-02
RMM:  11    -0.233097119076E+04    0.17875E-05   -0.21226E-05  2940   0.448E-03
  11 F= -.23523772E+04 E0= -.23523772E+04  d E =-.133152E+00  mag=     4.0000
       N       E                     dE             d eps       ncg     rms          rms(c)
DAV:   1    -0.233090466994E+04    0.66523E-01   -0.52078E+00  4544   0.176E+00    0.789E-01
RMM:   2    -0.233101799871E+04   -0.11333E+00   -0.11910E+00  6529   0.446E-01    0.515E-01
RMM:   3    -0.233102839346E+04   -0.10395E-01   -0.12819E-01  6227   0.185E-01    0.529E-01
RMM:   4    -0.233102633487E+04    0.20586E-02   -0.13139E-02  6038   0.400E-02    0.230E-01
RMM:   5    -0.233102585733E+04    0.47755E-03   -0.12726E-03  5009   0.166E-02    0.177E-01
RMM:   6    -0.233102571515E+04    0.14218E-03   -0.12261E-03  4945   0.182E-02    0.141E-01
RMM:   7    -0.233102547967E+04    0.23548E-03   -0.42103E-04  5054   0.122E-02    0.480E-02
RMM:   8    -0.233102546627E+04    0.13399E-04   -0.10739E-04  3033   0.846E-03    0.421E-02
RMM:   9    -0.233102544467E+04    0.21602E-04   -0.37716E-05  2919   0.476E-03    0.214E-02
RMM:  10    -0.233102543886E+04    0.58096E-05   -0.21127E-05  2901   0.378E-03
  12 F= -.23524313E+04 E0= -.23524313E+04  d E =-.541044E-01  mag=     4.0000
       N       E                     dE             d eps       ncg     rms          rms(c)
DAV:   1    -0.233034374118E+04    0.68170E+00   -0.30910E+01  4512   0.430E+00    0.197E+00
RMM:   2    -0.233105656927E+04   -0.71283E+00   -0.73517E+00  6557   0.114E+00    0.166E+00
RMM:   3    -0.233109834932E+04   -0.41780E-01   -0.82112E-01  6237   0.459E-01    0.136E+00
RMM:   4    -0.233108437153E+04    0.13978E-01   -0.82483E-02  6605   0.102E-01    0.555E-01
RMM:   5    -0.233108203407E+04    0.23375E-02   -0.83341E-03  5687   0.388E-02    0.469E-01
RMM:   6    -0.233108069981E+04    0.13343E-02   -0.69481E-03  6004   0.402E-02    0.321E-01
RMM:   7    -0.233107947210E+04    0.12277E-02   -0.26552E-03  5161   0.283E-02    0.127E-01
RMM:   8    -0.233107937824E+04    0.93851E-04   -0.72846E-04  4730   0.193E-02    0.103E-01
RMM:   9    -0.233107923021E+04    0.14804E-03   -0.22545E-04  3890   0.903E-03    0.503E-02
RMM:  10    -0.233107919370E+04    0.36510E-04   -0.11605E-04  3042   0.755E-03    0.195E-02
RMM:  11    -0.233107918556E+04    0.81345E-05   -0.29853E-05  2967   0.489E-03
  13 F= -.23524849E+04 E0= -.23524849E+04  d E =-.107666E+00  mag=     4.0000
       N       E                     dE             d eps       ncg     rms          rms(c)
DAV:   1    -0.233091350853E+04    0.16569E+00   -0.92480E+00  4544   0.231E+00    0.103E+00
RMM:   2    -0.233112409489E+04   -0.21059E+00   -0.22458E+00  6633   0.615E-01    0.525E-01
RMM:   3    -0.233114392432E+04   -0.19829E-01   -0.25558E-01  6363   0.254E-01    0.368E-01
RMM:   4    -0.233114448850E+04   -0.56418E-03   -0.24007E-02  6017   0.486E-02    0.318E-01
RMM:   5    -0.233114359451E+04    0.89399E-03   -0.18966E-03  4840   0.200E-02    0.210E-01
RMM:   6    -0.233114366115E+04   -0.66639E-04   -0.21191E-03  5420   0.218E-02    0.218E-01
RMM:   7    -0.233114319894E+04    0.46221E-03   -0.77006E-04  4764   0.149E-02    0.713E-02
RMM:   8    -0.233114313005E+04    0.68887E-04   -0.18617E-04  3189   0.778E-03    0.450E-02
RMM:   9    -0.233114310786E+04    0.22189E-04   -0.56109E-05  2926   0.578E-03    0.246E-02
RMM:  10    -0.233114310728E+04    0.57886E-06   -0.30413E-05  2946   0.365E-03
  14 F= -.23525488E+04 E0= -.23525488E+04  d E =-.639043E-01  mag=     4.0000
       N       E                     dE             d eps       ncg     rms          rms(c)
DAV:   1    -0.233071497033E+04    0.42814E+00   -0.18455E+01  4512   0.327E+00    0.147E+00
RMM:   2    -0.233114295288E+04   -0.42798E+00   -0.45545E+00  6639   0.883E-01    0.770E-01
RMM:   3    -0.233118248767E+04   -0.39535E-01   -0.52366E-01  6364   0.362E-01    0.533E-01
RMM:   4    -0.233118313556E+04   -0.64789E-03   -0.48403E-02  6205   0.700E-02    0.437E-01
RMM:   5    -0.233118120450E+04    0.19311E-02   -0.40376E-03  5460   0.295E-02    0.265E-01
RMM:   6    -0.233118141707E+04   -0.21257E-03   -0.32433E-03  5439   0.269E-02    0.317E-01
RMM:   7    -0.233118050313E+04    0.91394E-03   -0.18874E-03  4986   0.212E-02    0.121E-01
RMM:   8    -0.233118037296E+04    0.13017E-03   -0.51221E-04  3848   0.105E-02    0.718E-02
RMM:   9    -0.233118031500E+04    0.57958E-04   -0.12382E-04  2948   0.786E-03    0.430E-02
RMM:  10    -0.233118030227E+04    0.12732E-04   -0.68828E-05  2969   0.515E-03    0.336E-02
RMM:  11    -0.233118028946E+04    0.12815E-04   -0.38951E-05  2918   0.478E-03    0.756E-03
RMM:  12    -0.233118029179E+04   -0.23348E-05   -0.12172E-05  2946   0.289E-03
  15 F= -.23525860E+04 E0= -.23525860E+04  d E =-.101093E+00  mag=     4.0000
       N       E                     dE             d eps       ncg     rms          rms(c)
DAV:   1    -0.233115507652E+04    0.25213E-01   -0.35218E+00  4560   0.168E+00    0.657E-01
RMM:   2    -0.233121870509E+04   -0.63629E-01   -0.66728E-01  6488   0.418E-01    0.599E-01
RMM:   3    -0.233122123495E+04   -0.25299E-02   -0.70325E-02  6346   0.157E-01    0.433E-01
RMM:   4    -0.233121993476E+04    0.13002E-02   -0.74975E-03  5611   0.376E-02    0.230E-01
RMM:   5    -0.233121955557E+04    0.37920E-03   -0.15530E-03  5334   0.204E-02    0.188E-01
RMM:   6    -0.233121910345E+04    0.45212E-03   -0.12334E-03  5245   0.202E-02    0.801E-02
RMM:   7    -0.233121906464E+04    0.38804E-04   -0.34658E-04  4254   0.141E-02    0.608E-02
RMM:   8    -0.233121901024E+04    0.54402E-04   -0.91628E-05  3052   0.609E-03    0.253E-02
RMM:   9    -0.233121899865E+04    0.11595E-04   -0.17254E-05  2919   0.407E-03    0.118E-02
RMM:  10    -0.233121899419E+04    0.44548E-05   -0.16046E-05  2938   0.304E-03
  16 F= -.23526255E+04 E0= -.23526255E+04  d E =-.394784E-01  mag=     4.0000
       N       E                     dE             d eps       ncg     rms          rms(c)
DAV:   1    -0.233117228300E+04    0.46716E-01   -0.32012E+00  4560   0.159E+00    0.625E-01
RMM:   2    -0.233123004263E+04   -0.57760E-01   -0.60576E-01  6487   0.396E-01    0.572E-01
RMM:   3    -0.233123242797E+04   -0.23853E-02   -0.64337E-02  6333   0.149E-01    0.418E-01
RMM:   4    -0.233123120412E+04    0.12238E-02   -0.68303E-03  5605   0.360E-02    0.218E-01
RMM:   5    -0.233123084989E+04    0.35424E-03   -0.14115E-03  5317   0.194E-02    0.179E-01
RMM:   6    -0.233123043617E+04    0.41372E-03   -0.11465E-03  5227   0.193E-02    0.767E-02
RMM:   7    -0.233123039902E+04    0.37145E-04   -0.32472E-04  4203   0.135E-02    0.581E-02
RMM:   8    -0.233123034785E+04    0.51174E-04   -0.82420E-05  3025   0.592E-03    0.242E-02
RMM:   9    -0.233123033696E+04    0.10885E-04   -0.16291E-05  2921   0.399E-03    0.114E-02
RMM:  10    -0.233123033227E+04    0.46921E-05   -0.15453E-05  2936   0.304E-03
  17 F= -.23526376E+04 E0= -.23526376E+04  d E =-.515823E-01  mag=     4.0000
       N       E                     dE             d eps       ncg     rms          rms(c)
DAV:   1    -0.233118335110E+04    0.46986E-01   -0.36784E+00  4528   0.167E+00    0.664E-01
RMM:   2    -0.233126258542E+04   -0.79234E-01   -0.80097E-01  6600   0.436E-01    0.770E-01
RMM:   3    -0.233126238812E+04    0.19729E-03   -0.81216E-02  6391   0.160E-01    0.382E-01
RMM:   4    -0.233126161182E+04    0.77631E-03   -0.84145E-03  5744   0.363E-02    0.232E-01
RMM:   5    -0.233126118749E+04    0.42433E-03   -0.13310E-03  5024   0.173E-02    0.183E-01
RMM:   6    -0.233126080667E+04    0.38082E-03   -0.12626E-03  5219   0.194E-02    0.114E-01
RMM:   7    -0.233126073632E+04    0.70354E-04   -0.55765E-04  4265   0.159E-02    0.746E-02
RMM:   8    -0.233126064653E+04    0.89785E-04   -0.95497E-05  2992   0.623E-03    0.209E-02
RMM:   9    -0.233126063749E+04    0.90386E-05   -0.17296E-05  2923   0.425E-03
  18 F= -.23526693E+04 E0= -.23526693E+04  d E =-.317377E-01  mag=     4.0000
       N       E                     dE             d eps       ncg     rms          rms(c)
DAV:   1    -0.233119844832E+04    0.62198E-01   -0.33697E+00  4512   0.160E+00    0.634E-01
RMM:   2    -0.233127082617E+04   -0.72378E-01   -0.73280E-01  6588   0.418E-01    0.727E-01
RMM:   3    -0.233127083429E+04   -0.81172E-05   -0.74639E-02  6393   0.155E-01    0.367E-01
RMM:   4    -0.233127010732E+04    0.72698E-03   -0.76937E-03  5696   0.349E-02    0.222E-01
RMM:   5    -0.233126972366E+04    0.38365E-03   -0.12176E-03  4930   0.166E-02    0.177E-01
RMM:   6    -0.233126937012E+04    0.35354E-03   -0.11629E-03  5181   0.187E-02    0.110E-01
RMM:   7    -0.233126929914E+04    0.70987E-04   -0.53568E-04  4203   0.156E-02    0.715E-02
RMM:   8    -0.233126921556E+04    0.83572E-04   -0.87962E-05  2999   0.615E-03    0.203E-02
RMM:   9    -0.233126920666E+04    0.88996E-05   -0.16698E-05  2922   0.425E-03
  19 F= -.23526793E+04 E0= -.23526793E+04  d E =-.417123E-01  mag=     4.0000
       N       E                     dE             d eps       ncg     rms          rms(c)
DAV:   1    -0.233126311414E+04    0.61014E-02   -0.16183E+00  4544   0.122E+00    0.446E-01
RMM:   2    -0.233128759152E+04   -0.24477E-01   -0.24441E-01  6332   0.285E-01    0.444E-01
RMM:   3    -0.233128702550E+04    0.56602E-03   -0.23634E-02  6154   0.103E-01    0.254E-01
RMM:   4    -0.233128624877E+04    0.77673E-03   -0.24992E-03  5148   0.264E-02    0.113E-01
RMM:   5    -0.233128614128E+04    0.10749E-03   -0.59201E-04  5161   0.175E-02    0.816E-02
RMM:   6    -0.233128612011E+04    0.21169E-04   -0.36971E-04  4868   0.124E-02    0.846E-02
RMM:   7    -0.233128603783E+04    0.82279E-04   -0.11323E-04  3025   0.813E-03    0.308E-02
RMM:   8    -0.233128602871E+04    0.91136E-05   -0.29716E-05  2933   0.446E-03
  20 F= -.23526967E+04 E0= -.23526967E+04  d E =-.174339E-01  mag=     4.0000
       N       E                     dE             d eps       ncg     rms          rms(c)
DAV:   1    -0.233127909807E+04    0.69398E-02   -0.68345E-01  4608   0.791E-01    0.292E-01
RMM:   2    -0.233128950142E+04   -0.10403E-01   -0.10355E-01  6350   0.186E-01    0.295E-01
RMM:   3    -0.233128919509E+04    0.30633E-03   -0.97538E-03  6013   0.664E-02    0.168E-01
RMM:   4    -0.233128885559E+04    0.33950E-03   -0.10464E-03  4843   0.173E-02    0.739E-02
RMM:   5    -0.233128880895E+04    0.46636E-04   -0.25220E-04  4239   0.118E-02    0.544E-02
RMM:   6    -0.233128880727E+04    0.16870E-05   -0.16904E-04  3794   0.893E-03    0.643E-02
RMM:   7    -0.233128875913E+04    0.48143E-04   -0.54142E-05  2946   0.687E-03    0.163E-02
RMM:   8    -0.233128875607E+04    0.30529E-05   -0.14265E-05  2924   0.343E-03
  21 F= -.23526998E+04 E0= -.23526998E+04  d E =-.205672E-01  mag=     4.0000
       N       E                     dE             d eps       ncg     rms          rms(c)
DAV:   1    -0.233127533595E+04    0.13423E-01   -0.18688E+00  4528   0.130E+00    0.447E-01
RMM:   2    -0.233130147129E+04   -0.26135E-01   -0.27464E-01  6359   0.295E-01    0.334E-01
RMM:   3    -0.233130312564E+04   -0.16543E-02   -0.30333E-02  6156   0.115E-01    0.296E-01
RMM:   4    -0.233130207924E+04    0.10464E-02   -0.28701E-03  5587   0.267E-02    0.132E-01
RMM:   5    -0.233130211906E+04   -0.39824E-04   -0.89245E-04  4792   0.152E-02    0.175E-01
RMM:   6    -0.233130182064E+04    0.29842E-03   -0.62912E-04  4639   0.138E-02    0.581E-02
RMM:   7    -0.233130177559E+04    0.45054E-04   -0.11270E-04  3272   0.854E-03    0.273E-02
RMM:   8    -0.233130177110E+04    0.44870E-05   -0.33100E-05  2941   0.527E-03
  22 F= -.23527137E+04 E0= -.23527137E+04  d E =-.138839E-01  mag=     4.0000
       N       E                     dE             d eps       ncg     rms          rms(c)
DAV:   1    -0.233129579707E+04    0.59785E-02   -0.50820E-01  4608   0.677E-01    0.234E-01
RMM:   2    -0.233130288192E+04   -0.70849E-02   -0.74420E-02  6378   0.154E-01    0.176E-01
RMM:   3    -0.233130333457E+04   -0.45265E-03   -0.83519E-03  5830   0.605E-02    0.160E-01
RMM:   4    -0.233130303655E+04    0.29802E-03   -0.78469E-04  3718   0.142E-02    0.728E-02
RMM:   5    -0.233130304056E+04   -0.40104E-05   -0.24430E-04  3185   0.894E-03    0.910E-02
RMM:   6    -0.233130295639E+04    0.84176E-04   -0.18457E-04  3607   0.886E-03    0.285E-02
RMM:   7    -0.233130294391E+04    0.12482E-04   -0.34296E-05  2995   0.588E-03    0.138E-02
RMM:   8    -0.233130294305E+04    0.85411E-06   -0.11748E-05  2913   0.386E-03
  23 F= -.23527153E+04 E0= -.23527153E+04  d E =-.155124E-01  mag=     4.0000
       N       E                     dE             d eps       ncg     rms          rms(c)
DAV:   1    -0.233129165587E+04    0.11288E-01   -0.17999E+00  4512   0.127E+00    0.410E-01
RMM:   2    -0.233131368982E+04   -0.22034E-01   -0.23771E-01  6215   0.269E-01    0.222E-01
RMM:   3    -0.233131535690E+04   -0.16671E-02   -0.25932E-02  5950   0.109E-01    0.163E-01
RMM:   4    -0.233131532688E+04    0.30020E-04   -0.26462E-03  5493   0.253E-02    0.138E-01
RMM:   5    -0.233131518657E+04    0.14031E-03   -0.69996E-04  4721   0.165E-02    0.103E-01
RMM:   6    -0.233131514138E+04    0.45190E-04   -0.32323E-04  3542   0.117E-02    0.738E-02
RMM:   7    -0.233131507030E+04    0.71082E-04   -0.70708E-05  3037   0.712E-03    0.155E-02
RMM:   8    -0.233131506854E+04    0.17536E-05   -0.17156E-05  2935   0.418E-03
  24 F= -.23527291E+04 E0= -.23527291E+04  d E =-.137749E-01  mag=     4.0000
       N       E                     dE             d eps       ncg     rms          rms(c)
DAV:   1    -0.233129963476E+04    0.15436E-01   -0.13583E+00  4512   0.110E+00    0.357E-01
RMM:   2    -0.233131631347E+04   -0.16679E-01   -0.17978E-01  6256   0.234E-01    0.193E-01
RMM:   3    -0.233131755281E+04   -0.12393E-02   -0.19430E-02  5944   0.942E-02    0.140E-01
RMM:   4    -0.233131751048E+04    0.42328E-04   -0.19852E-03  5358   0.221E-02    0.117E-01
RMM:   5    -0.233131736005E+04    0.15043E-03   -0.54281E-04  4706   0.150E-02    0.613E-02
RMM:   6    -0.233131737606E+04   -0.16013E-04   -0.18280E-04  3253   0.965E-03    0.695E-02
RMM:   7    -0.233131732209E+04    0.53970E-04   -0.56023E-05  2948   0.630E-03    0.150E-02
RMM:   8    -0.233131732039E+04    0.17016E-05   -0.14801E-05  2958   0.360E-03
  25 F= -.23527328E+04 E0= -.23527328E+04  d E =-.174584E-01  mag=     4.0000
       N       E                     dE             d eps       ncg     rms          rms(c)
DAV:   1    -0.233131029252E+04    0.70296E-02   -0.12861E+00  4544   0.106E+00    0.344E-01
RMM:   2    -0.233132782262E+04   -0.17530E-01   -0.18387E-01  6340   0.225E-01    0.218E-01
RMM:   3    -0.233132913638E+04   -0.13138E-02   -0.19157E-02  6051   0.867E-02    0.186E-01
RMM:   4    -0.233132874391E+04    0.39247E-03   -0.19391E-03  4945   0.199E-02    0.951E-02
RMM:   5    -0.233132865502E+04    0.88897E-04   -0.31779E-04  4162   0.118E-02    0.546E-02
RMM:   6    -0.233132869637E+04   -0.41350E-04   -0.21036E-04  3362   0.999E-03    0.768E-02
RMM:   7    -0.233132862964E+04    0.66725E-04   -0.62558E-05  2950   0.666E-03    0.161E-02
RMM:   8    -0.233132862656E+04    0.30865E-05   -0.16065E-05  2937   0.411E-03
  26 F= -.23527451E+04 E0= -.23527451E+04  d E =-.122625E-01  mag=     4.0000
       N       E                     dE             d eps       ncg     rms          rms(c)
DAV:   1    -0.233117089405E+04    0.15774E+00   -0.11568E+01  4512   0.318E+00    0.105E+00
RMM:   2    -0.233133131988E+04   -0.16043E+00   -0.16697E+00  6351   0.680E-01    0.723E-01
RMM:   3    -0.233134086174E+04   -0.95419E-02   -0.17712E-01  6203   0.261E-01    0.549E-01
RMM:   4    -0.233133731911E+04    0.35426E-02   -0.17373E-02  5957   0.591E-02    0.284E-01
RMM:   5    -0.233133655845E+04    0.76066E-03   -0.28707E-03  5360   0.315E-02    0.170E-01
RMM:   6    -0.233133658828E+04   -0.29835E-04   -0.20829E-03  5777   0.272E-02    0.158E-01
RMM:   7    -0.233133620779E+04    0.38049E-03   -0.48631E-04  4849   0.148E-02    0.439E-02
RMM:   8    -0.233133620182E+04    0.59727E-05   -0.11429E-04  3005   0.638E-03    0.511E-02
RMM:   9    -0.233133616434E+04    0.37480E-04   -0.46960E-05  2928   0.472E-03    0.186E-02
RMM:  10    -0.233133615427E+04    0.10065E-04   -0.22099E-05  2964   0.388E-03    0.688E-03
RMM:  11    -0.233133615111E+04    0.31685E-05   -0.10108E-05  2910   0.356E-03
  27 F= -.23527554E+04 E0= -.23527554E+04  d E =-.226404E-01  mag=     4.0000
       N       E                     dE             d eps       ncg     rms          rms(c)
DAV:   1    -0.233132820025E+04    0.79540E-02   -0.69022E-01  4640   0.774E-01    0.251E-01
RMM:   2    -0.233133762021E+04   -0.94200E-02   -0.98490E-02  6370   0.165E-01    0.162E-01
RMM:   3    -0.233133833802E+04   -0.71781E-03   -0.10154E-02  5925   0.624E-02    0.143E-01
RMM:   4    -0.233133808986E+04    0.24816E-03   -0.10314E-03  3827   0.148E-02    0.670E-02
RMM:   5    -0.233133804136E+04    0.48503E-04   -0.18268E-04  3844   0.963E-03    0.345E-02
RMM:   6    -0.233133806113E+04   -0.19775E-04   -0.90848E-05  2981   0.752E-03    0.519E-02
RMM:   7    -0.233133803379E+04    0.27336E-04   -0.30319E-05  2914   0.539E-03    0.891E-03
RMM:   8    -0.233133803254E+04    0.12535E-05   -0.62696E-06  2910   0.278E-03
  28 F= -.23527566E+04 E0= -.23527566E+04  d E =-.238273E-01  mag=     4.0000
       N       E                     dE             d eps       ncg     rms          rms(c)
DAV:   1    -0.233133137978E+04    0.66540E-02   -0.12747E+00  4528   0.103E+00    0.349E-01
RMM:   2    -0.233134858891E+04   -0.17209E-01   -0.17846E-01  6322   0.223E-01    0.240E-01
RMM:   3    -0.233134973325E+04   -0.11443E-02   -0.18088E-02  6093   0.852E-02    0.199E-01
RMM:   4    -0.233134924565E+04    0.48760E-03   -0.19330E-03  5067   0.205E-02    0.933E-02
RMM:   5    -0.233134920870E+04    0.36952E-04   -0.35142E-04  4201   0.121E-02    0.809E-02
RMM:   6    -0.233134918983E+04    0.18863E-04   -0.23018E-04  3123   0.960E-03    0.672E-02
RMM:   7    -0.233134914360E+04    0.46234E-04   -0.43889E-05  2964   0.629E-03    0.103E-02
RMM:   8    -0.233134914171E+04    0.18906E-05   -0.10508E-05  2912   0.421E-03
  29 F= -.23527686E+04 E0= -.23527686E+04  d E =-.119512E-01  mag=     4.0000
       N       E                     dE             d eps       ncg     rms          rms(c)
DAV:   1    -0.233128726067E+04    0.61883E-01   -0.49743E+00  4512   0.204E+00    0.693E-01
RMM:   2    -0.233135478987E+04   -0.67529E-01   -0.69865E-01  6324   0.442E-01    0.486E-01
RMM:   3    -0.233135901540E+04   -0.42255E-02   -0.71509E-02  6206   0.167E-01    0.389E-01
RMM:   4    -0.233135710068E+04    0.19147E-02   -0.75651E-03  5777   0.401E-02    0.185E-01
RMM:   5    -0.233135683488E+04    0.26580E-03   -0.12665E-03  5166   0.221E-02    0.121E-01
RMM:   6    -0.233135699195E+04   -0.15707E-03   -0.91074E-04  4837   0.171E-02    0.163E-01
RMM:   7    -0.233135670339E+04    0.28857E-03   -0.22403E-04  3605   0.990E-03    0.268E-02
RMM:   8    -0.233135669527E+04    0.81184E-05   -0.48665E-05  2965   0.617E-03
  30 F= -.23527778E+04 E0= -.23527778E+04  d E =-.211687E-01  mag=     4.0000
       N       E                     dE             d eps       ncg     rms          rms(c)
DAV:   1    -0.233134918393E+04    0.75195E-02   -0.94218E-01  4608   0.880E-01    0.321E-01
RMM:   2    -0.233136321734E+04   -0.14033E-01   -0.14961E-01  6287   0.197E-01    0.177E-01
RMM:   3    -0.233136434258E+04   -0.11252E-02   -0.15961E-02  5968   0.814E-02    0.145E-01
RMM:   4    -0.233136417761E+04    0.16497E-03   -0.16469E-03  4493   0.181E-02    0.993E-02
RMM:   5    -0.233136410196E+04    0.75650E-04   -0.34475E-04  4223   0.118E-02    0.749E-02
RMM:   6    -0.233136409266E+04    0.92933E-05   -0.22751E-04  3121   0.945E-03    0.620E-02
RMM:   7    -0.233136405851E+04    0.34149E-04   -0.50519E-05  2970   0.646E-03    0.193E-02
RMM:   8    -0.233136405439E+04    0.41274E-05   -0.16706E-05  2912   0.403E-03
  31 F= -.23527861E+04 E0= -.23527861E+04  d E =-.825394E-02  mag=     4.0000
       N       E                     dE             d eps       ncg     rms          rms(c)
DAV:   1    -0.233134482842E+04    0.19230E-01   -0.13754E+00  4528   0.106E+00    0.388E-01
RMM:   2    -0.233136528098E+04   -0.20453E-01   -0.21807E-01  6281   0.237E-01    0.216E-01
RMM:   3    -0.233136693917E+04   -0.16582E-02   -0.23688E-02  6011   0.972E-02    0.175E-01
RMM:   4    -0.233136667502E+04    0.26415E-03   -0.23799E-03  5136   0.219E-02    0.118E-01
RMM:   5    -0.233136655747E+04    0.11755E-03   -0.51465E-04  4643   0.138E-02    0.869E-02
RMM:   6    -0.233136654316E+04    0.14313E-04   -0.31568E-04  3370   0.109E-02    0.743E-02
RMM:   7    -0.233136649421E+04    0.48949E-04   -0.71695E-05  3001   0.708E-03    0.236E-02
RMM:   8    -0.233136648758E+04    0.66305E-05   -0.23807E-05  2925   0.465E-03
  32 F= -.23527896E+04 E0= -.23527896E+04  d E =-.117747E-01  mag=     4.0000
       N       E                     dE             d eps       ncg     rms          rms(c)
DAV:   1    -0.233134923482E+04    0.17259E-01   -0.14351E+00  4544   0.107E+00    0.388E-01
RMM:   2    -0.233137279548E+04   -0.23561E-01   -0.25088E-01  6361   0.241E-01    0.217E-01
RMM:   3    -0.233137480512E+04   -0.20096E-02   -0.28638E-02  6049   0.101E-01    0.149E-01
RMM:   4    -0.233137472090E+04    0.84217E-04   -0.26200E-03  4826   0.212E-02    0.117E-01
RMM:   5    -0.233137457539E+04    0.14551E-03   -0.51774E-04  4365   0.138E-02    0.621E-02
RMM:   6    -0.233137462591E+04   -0.50520E-04   -0.24011E-04  3432   0.968E-03    0.823E-02
RMM:   7    -0.233137454524E+04    0.80673E-04   -0.84900E-05  2962   0.694E-03    0.142E-02
RMM:   8    -0.233137454390E+04    0.13340E-05   -0.18110E-05  2955   0.355E-03
  33 F= -.23527988E+04 E0= -.23527988E+04  d E =-.920423E-02  mag=     4.0000
       N       E                     dE             d eps       ncg     rms          rms(c)
DAV:   1    -0.233135609526E+04    0.18450E-01   -0.11361E+00  4576   0.955E-01    0.346E-01
RMM:   2    -0.233137472623E+04   -0.18631E-01   -0.19842E-01  6354   0.214E-01    0.193E-01
RMM:   3    -0.233137631810E+04   -0.15919E-02   -0.22743E-02  5989   0.893E-02    0.134E-01
RMM:   4    -0.233137625446E+04    0.63647E-04   -0.20711E-03  4439   0.189E-02    0.106E-01
RMM:   5    -0.233137615621E+04    0.98249E-04   -0.41795E-04  3995   0.124E-02    0.704E-02
RMM:   6    -0.233137617625E+04   -0.20036E-04   -0.22640E-04  3234   0.926E-03    0.760E-02
RMM:   7    -0.233137611183E+04    0.64412E-04   -0.64588E-05  2985   0.670E-03    0.116E-02
RMM:   8    -0.233137610903E+04    0.28065E-05   -0.11581E-05  2936   0.362E-03
  34 F= -.23528014E+04 E0= -.23528014E+04  d E =-.117985E-01  mag=     4.0000
       N       E                     dE             d eps       ncg     rms          rms(c)
DAV:   1    -0.233136178204E+04    0.14330E-01   -0.12429E+00  4528   0.106E+00    0.358E-01
RMM:   2    -0.233138056546E+04   -0.18783E-01   -0.19729E-01  6277   0.235E-01    0.214E-01
RMM:   3    -0.233138207027E+04   -0.15048E-02   -0.19977E-02  5998   0.955E-02    0.219E-01
RMM:   4    -0.233138171274E+04    0.35754E-03   -0.21260E-03  4933   0.217E-02    0.119E-01
RMM:   5    -0.233138167019E+04    0.42549E-04   -0.43971E-04  4426   0.130E-02    0.968E-02
RMM:   6    -0.233138155992E+04    0.11027E-03   -0.31236E-04  4344   0.115E-02    0.407E-02
RMM:   7    -0.233138154503E+04    0.14892E-04   -0.50944E-05  3013   0.705E-03    0.196E-02
RMM:   8    -0.233138154214E+04    0.28901E-05   -0.20172E-05  2920   0.428E-03
  35 F= -.23528079E+04 E0= -.23528079E+04  d E =-.653614E-02  mag=     4.0000
       N       E                     dE             d eps       ncg     rms          rms(c)
DAV:   1    -0.233137494522E+04    0.65998E-02   -0.43680E-01  4640   0.627E-01    0.213E-01
RMM:   2    -0.233138154880E+04   -0.66036E-02   -0.69435E-02  6293   0.140E-01    0.126E-01
RMM:   3    -0.233138207110E+04   -0.52230E-03   -0.70193E-03  5669   0.562E-02    0.126E-01
RMM:   4    -0.233138195935E+04    0.11176E-03   -0.74536E-04  3381   0.132E-02    0.714E-02
RMM:   5    -0.233138194561E+04    0.13741E-04   -0.15702E-04  3162   0.857E-03    0.586E-02
RMM:   6    -0.233138190426E+04    0.41353E-04   -0.11231E-04  3190   0.826E-03    0.230E-02
RMM:   7    -0.233138189882E+04    0.54301E-05   -0.20776E-05  2962   0.556E-03
  36 F= -.23528089E+04 E0= -.23528089E+04  d E =-.755192E-02  mag=     4.0000
       N       E                     dE             d eps       ncg     rms          rms(c)
DAV:   1    -0.233136021307E+04    0.21691E-01   -0.14582E+00  4512   0.113E+00    0.383E-01
RMM:   2    -0.233138464044E+04   -0.24427E-01   -0.25791E-01  6354   0.260E-01    0.213E-01
RMM:   3    -0.233138673805E+04   -0.20976E-02   -0.28126E-02  5988   0.111E-01    0.205E-01
RMM:   4    -0.233138644012E+04    0.29793E-03   -0.26629E-03  4773   0.229E-02    0.127E-01
RMM:   5    -0.233138638765E+04    0.52472E-04   -0.47285E-04  4398   0.124E-02    0.111E-01
RMM:   6    -0.233138625039E+04    0.13726E-03   -0.32917E-04  4121   0.111E-02    0.486E-02
RMM:   7    -0.233138624019E+04    0.10198E-04   -0.93571E-05  3056   0.765E-03    0.332E-02
RMM:   8    -0.233138622444E+04    0.15754E-04   -0.30972E-05  2920   0.516E-03    0.125E-02
RMM:   9    -0.233138622128E+04    0.31618E-05   -0.63902E-06  2913   0.280E-03
  37 F= -.23528143E+04 E0= -.23528143E+04  d E =-.533396E-02  mag=     4.0000
       N       E                     dE             d eps       ncg     rms          rms(c)
DAV:   1    -0.233138017076E+04    0.60537E-02   -0.34151E-01  4608   0.548E-01    0.185E-01
RMM:   2    -0.233138588821E+04   -0.57175E-02   -0.60423E-02  6346   0.126E-01    0.102E-01
RMM:   3    -0.233138637078E+04   -0.48256E-03   -0.64861E-03  5481   0.527E-02    0.996E-02
RMM:   4    -0.233138631026E+04    0.60519E-04   -0.61630E-04  3131   0.113E-02    0.631E-02
RMM:   5    -0.233138629273E+04    0.17530E-04   -0.11026E-04  3040   0.684E-03    0.512E-02
RMM:   6    -0.233138626186E+04    0.30870E-04   -0.82374E-05  2979   0.677E-03    0.221E-02
RMM:   7    -0.233138625825E+04    0.36112E-05   -0.21719E-05  2958   0.497E-03
  38 F= -.23528148E+04 E0= -.23528148E+04  d E =-.586422E-02  mag=     4.0000
       N       E                     dE             d eps       ncg     rms          rms(c)
DAV:   1    -0.233136329598E+04    0.22966E-01   -0.13959E+00  4512   0.111E+00    0.374E-01
RMM:   2    -0.233138843086E+04   -0.25135E-01   -0.26470E-01  6455   0.258E-01    0.207E-01
RMM:   3    -0.233139059317E+04   -0.21623E-02   -0.29388E-02  6044   0.112E-01    0.169E-01
RMM:   4    -0.233139042150E+04    0.17167E-03   -0.26677E-03  4793   0.225E-02    0.112E-01
RMM:   5    -0.233139037259E+04    0.48908E-04   -0.43068E-04  4184   0.120E-02    0.107E-01
RMM:   6    -0.233139028264E+04    0.89953E-04   -0.27577E-04  3245   0.105E-02    0.565E-02
RMM:   7    -0.233139026964E+04    0.12998E-04   -0.82582E-05  3054   0.732E-03    0.334E-02
RMM:   8    -0.233139025376E+04    0.15888E-04   -0.29186E-05  2917   0.539E-03    0.123E-02
RMM:   9    -0.233139025116E+04    0.25994E-05   -0.56824E-06  2906   0.260E-03
  39 F= -.23528197E+04 E0= -.23528197E+04  d E =-.494916E-02  mag=     4.0000
       N       E                     dE             d eps       ncg     rms          rms(c)
DAV:   1    -0.233137742470E+04    0.12829E-01   -0.68115E-01  4544   0.776E-01    0.260E-01
RMM:   2    -0.233138968773E+04   -0.12263E-01   -0.12908E-01  6392   0.181E-01    0.144E-01
RMM:   3    -0.233139073834E+04   -0.10506E-02   -0.14339E-02  5879   0.796E-02    0.115E-01
RMM:   4    -0.233139066428E+04    0.74056E-04   -0.12999E-03  3672   0.158E-02    0.793E-02
RMM:   5    -0.233139064185E+04    0.22434E-04   -0.21064E-04  3229   0.936E-03    0.785E-02
RMM:   6    -0.233139059063E+04    0.51221E-04   -0.14527E-04  3017   0.827E-03    0.377E-02
RMM:   7    -0.233139058385E+04    0.67815E-05   -0.40589E-05  2980   0.616E-03
  40 F= -.23528207E+04 E0= -.23528207E+04  d E =-.595671E-02  mag=     4.0000
       N       E                     dE             d eps       ncg     rms          rms(c)
DAV:   1    -0.233136681215E+04    0.23778E-01   -0.16458E+00  4512   0.116E+00    0.399E-01
RMM:   2    -0.233139419597E+04   -0.27384E-01   -0.28556E-01  6438   0.268E-01    0.259E-01
RMM:   3    -0.233139671827E+04   -0.25223E-02   -0.30296E-02  6105   0.109E-01    0.282E-01
RMM:   4    -0.233139607257E+04    0.64570E-03   -0.31504E-03  5094   0.240E-02    0.133E-01
RMM:   5    -0.233139601924E+04    0.53329E-04   -0.54665E-04  3816   0.119E-02    0.112E-01
RMM:   6    -0.233139586828E+04    0.15096E-03   -0.37184E-04  4193   0.121E-02    0.427E-02
RMM:   7    -0.233139586834E+04   -0.59576E-07   -0.86074E-05  3084   0.762E-03
  41 F= -.23528268E+04 E0= -.23528268E+04  d E =-.606670E-02  mag=     4.0000
       N       E                     dE             d eps       ncg     rms          rms(c)
DAV:   1    -0.233135982469E+04    0.36044E-01   -0.21115E+00  4512   0.132E+00    0.453E-01
RMM:   2    -0.233139496150E+04   -0.35137E-01   -0.36639E-01  6494   0.304E-01    0.294E-01
RMM:   3    -0.233139817477E+04   -0.32133E-02   -0.38890E-02  6188   0.122E-01    0.317E-01
RMM:   4    -0.233139735331E+04    0.82146E-03   -0.40421E-03  5409   0.269E-02    0.151E-01
RMM:   5    -0.233139728501E+04    0.68305E-04   -0.71061E-04  4183   0.131E-02    0.128E-01
RMM:   6    -0.233139708918E+04    0.19583E-03   -0.46847E-04  4373   0.132E-02    0.491E-02
RMM:   7    -0.233139709066E+04   -0.14840E-05   -0.11728E-04  3139   0.861E-03    0.405E-02
RMM:   8    -0.233139706973E+04    0.20933E-04   -0.43500E-05  2933   0.549E-03    0.146E-02
RMM:   9    -0.233139706587E+04    0.38617E-05   -0.71558E-06  2901   0.295E-03
  42 F= -.23528289E+04 E0= -.23528289E+04  d E =-.817132E-02  mag=     4.0000
       N       E                     dE             d eps       ncg     rms          rms(c)
DAV:   1    -0.233139076412E+04    0.63056E-02   -0.58188E-01  4560   0.650E-01    0.225E-01
RMM:   2    -0.233139990808E+04   -0.91440E-02   -0.94743E-02  6497   0.149E-01    0.165E-01
RMM:   3    -0.233140076193E+04   -0.85385E-03   -0.10215E-02  5696   0.592E-02    0.182E-01
RMM:   4    -0.233140048839E+04    0.27353E-03   -0.10556E-03  3227   0.137E-02    0.714E-02
RMM:   5    -0.233140047555E+04    0.12843E-04   -0.18614E-04  3122   0.754E-03    0.632E-02
RMM:   6    -0.233140042827E+04    0.47283E-04   -0.13192E-04  3019   0.772E-03    0.249E-02
RMM:   7    -0.233140042728E+04    0.98819E-06   -0.29994E-05  2993   0.539E-03
  43 F= -.23528327E+04 E0= -.23528327E+04  d E =-.375633E-02  mag=     4.0000
       N       E                     dE             d eps       ncg     rms          rms(c)
DAV:   1    -0.233131847545E+04    0.81953E-01   -0.52302E+00  4512   0.195E+00    0.674E-01
RMM:   2    -0.233140035102E+04   -0.81876E-01   -0.85318E-01  6510   0.446E-01    0.458E-01
RMM:   3    -0.233140862889E+04   -0.82779E-02   -0.93038E-02  6233   0.179E-01    0.534E-01
RMM:   4    -0.233140619819E+04    0.24307E-02   -0.94629E-03  5928   0.401E-02    0.215E-01
RMM:   5    -0.233140609429E+04    0.10390E-03   -0.16757E-03  5048   0.184E-02    0.190E-01
RMM:   6    -0.233140567054E+04    0.42375E-03   -0.11651E-03  4960   0.186E-02    0.764E-02
RMM:   7    -0.233140564900E+04    0.21532E-04   -0.23485E-04  3837   0.103E-02    0.488E-02
RMM:   8    -0.233140562203E+04    0.26974E-04   -0.80012E-05  2957   0.615E-03    0.261E-02
RMM:   9    -0.233140561155E+04    0.10484E-04   -0.13536E-05  2926   0.347E-03    0.106E-02
RMM:  10    -0.233140560874E+04    0.28054E-05   -0.10006E-05  2927   0.262E-03
  44 F= -.23528391E+04 E0= -.23528391E+04  d E =-.101641E-01  mag=     4.0000
       N       E                     dE             d eps       ncg     rms          rms(c)
DAV:   1    -0.233139255437E+04    0.13057E-01   -0.79469E-01  4528   0.759E-01    0.263E-01
RMM:   2    -0.233140502254E+04   -0.12468E-01   -0.12928E-01  6486   0.174E-01    0.190E-01
RMM:   3    -0.233140618640E+04   -0.11639E-02   -0.13900E-02  5864   0.687E-02    0.209E-01
RMM:   4    -0.233140582028E+04    0.36612E-03   -0.14396E-03  3418   0.158E-02    0.831E-02
RMM:   5    -0.233140580317E+04    0.17108E-04   -0.25087E-04  3214   0.867E-03    0.738E-02
RMM:   6    -0.233140573756E+04    0.65610E-04   -0.17915E-04  3187   0.885E-03    0.290E-02
RMM:   7    -0.233140573567E+04    0.18932E-05   -0.39284E-05  3010   0.595E-03
  45 F= -.23528397E+04 E0= -.23528397E+04  d E =-.107855E-01  mag=     4.0000
       N       E                     dE             d eps       ncg     rms          rms(c)
DAV:   1    -0.233138411761E+04    0.21620E-01   -0.16312E+00  4512   0.106E+00    0.378E-01
RMM:   2    -0.233140980883E+04   -0.25691E-01   -0.27081E-01  6504   0.252E-01    0.210E-01
RMM:   3    -0.233141222214E+04   -0.24133E-02   -0.28808E-02  5996   0.977E-02    0.228E-01
RMM:   4    -0.233141198828E+04    0.23386E-03   -0.29496E-03  4031   0.215E-02    0.131E-01
RMM:   5    -0.233141187887E+04    0.10941E-03   -0.40121E-04  3792   0.110E-02    0.877E-02
RMM:   6    -0.233141184069E+04    0.38178E-04   -0.34389E-04  3625   0.112E-02    0.614E-02
RMM:   7    -0.233141179122E+04    0.49479E-04   -0.74144E-05  3039   0.700E-03    0.202E-02
RMM:   8    -0.233141178933E+04    0.18807E-05   -0.21214E-05  2926   0.452E-03
  46 F= -.23528466E+04 E0= -.23528466E+04  d E =-.690223E-02  mag=     4.0000
       N       E                     dE             d eps       ncg     rms          rms(c)
DAV:   1    -0.233121657947E+04    0.19521E+00   -0.11760E+01  4512   0.284E+00    0.101E+00
RMM:   2    -0.233140192413E+04   -0.18534E+00   -0.19565E+00  6501   0.674E-01    0.548E-01
RMM:   3    -0.233141988263E+04   -0.17958E-01   -0.21558E-01  6083   0.263E-01    0.564E-01
RMM:   4    -0.233141873497E+04    0.11477E-02   -0.20911E-02  6227   0.573E-02    0.368E-01
RMM:   5    -0.233141779330E+04    0.94167E-03   -0.30563E-03  5016   0.244E-02    0.237E-01
RMM:   6    -0.233141745625E+04    0.33705E-03   -0.23236E-03  5545   0.266E-02    0.156E-01
RMM:   7    -0.233141714337E+04    0.31288E-03   -0.58061E-04  5169   0.143E-02    0.513E-02
RMM:   8    -0.233141710996E+04    0.33410E-04   -0.97273E-05  3079   0.653E-03    0.368E-02
RMM:   9    -0.233141709549E+04    0.14476E-04   -0.39292E-05  2925   0.464E-03    0.194E-02
RMM:  10    -0.233141708614E+04    0.93515E-05   -0.20558E-05  2955   0.336E-03
  47 F= -.23528543E+04 E0= -.23528543E+04  d E =-.145839E-01  mag=     4.0000
       N       E                     dE             d eps       ncg     rms          rms(c)
DAV:   1    -0.233140119108E+04    0.15904E-01   -0.11343E+00  4544   0.851E-01    0.313E-01
RMM:   2    -0.233142006921E+04   -0.18878E-01   -0.19932E-01  6558   0.206E-01    0.163E-01
RMM:   3    -0.233142172686E+04   -0.16577E-02   -0.21269E-02  5766   0.798E-02    0.137E-01
RMM:   4    -0.233142180123E+04   -0.74367E-04   -0.20963E-03  3302   0.171E-02    0.123E-01
RMM:   5    -0.233142167666E+04    0.12457E-03   -0.28203E-04  3064   0.898E-03    0.674E-02
RMM:   6    -0.233142166673E+04    0.99234E-05   -0.22170E-04  3183   0.867E-03    0.512E-02
RMM:   7    -0.233142163043E+04    0.36304E-04   -0.53936E-05  3015   0.620E-03    0.112E-02
RMM:   8    -0.233142162994E+04    0.48919E-06   -0.83256E-06  2923   0.294E-03
  48 F= -.23528597E+04 E0= -.23528597E+04  d E =-.545125E-02  mag=     4.0000
       N       E                     dE             d eps       ncg     rms          rms(c)
DAV:   1    -0.233124476779E+04    0.17686E+00   -0.10197E+01  4512   0.255E+00    0.938E-01
RMM:   2    -0.233141491901E+04   -0.17015E+00   -0.17988E+00  6563   0.616E-01    0.491E-01
RMM:   3    -0.233143017256E+04   -0.15254E-01   -0.19847E-01  6049   0.241E-01    0.366E-01
RMM:   4    -0.233143106190E+04   -0.88934E-03   -0.18459E-02  5967   0.507E-02    0.355E-01
RMM:   5    -0.233143015082E+04    0.91108E-03   -0.25845E-03  5083   0.215E-02    0.228E-01
RMM:   6    -0.233142985750E+04    0.29331E-03   -0.17808E-03  5049   0.219E-02    0.147E-01
RMM:   7    -0.233142961005E+04    0.24746E-03   -0.57100E-04  4485   0.129E-02    0.464E-02
RMM:   8    -0.233142957554E+04    0.34505E-04   -0.60335E-05  3026   0.556E-03    0.185E-02
RMM:   9    -0.233142957040E+04    0.51396E-05   -0.22422E-05  2960   0.370E-03
  49 F= -.23528705E+04 E0= -.23528705E+04  d E =-.162133E-01  mag=     4.0000
       N       E                     dE             d eps       ncg     rms          rms(c)
DAV:   1    -0.233066259840E+04    0.76698E+00   -0.40705E+01  4512   0.511E+00    0.189E+00
RMM:   2    -0.233135952915E+04   -0.69693E+00   -0.73632E+00  6577   0.125E+00    0.101E+00
RMM:   3    -0.233142135420E+04   -0.61825E-01   -0.83082E-01  6075   0.491E-01    0.708E-01
RMM:   4    -0.233142215132E+04   -0.79712E-03   -0.71159E-02  6236   0.997E-02    0.535E-01
RMM:   5    -0.233142147567E+04    0.67565E-03   -0.96494E-03  5836   0.461E-02    0.481E-01
RMM:   6    -0.233141972596E+04    0.17497E-02   -0.66844E-03  5666   0.375E-02    0.339E-01
RMM:   7    -0.233141892246E+04    0.80350E-03   -0.24718E-03  5294   0.249E-02    0.168E-01
RMM:   8    -0.233141856201E+04    0.36045E-03   -0.49763E-04  3712   0.120E-02    0.508E-02
RMM:   9    -0.233141854987E+04    0.12134E-04   -0.15349E-04  3131   0.692E-03    0.585E-02
RMM:  10    -0.233141850689E+04    0.42984E-04   -0.87302E-05  2931   0.596E-03    0.150E-02
RMM:  11    -0.233141850935E+04   -0.24552E-05   -0.21813E-05  2986   0.347E-03
  50 F= -.23528655E+04 E0= -.23528655E+04  d E =-.112485E-01  mag=     4.0000
       N       E                     dE             d eps       ncg     rms          rms(c)
DAV:   1    -0.233111815738E+04    0.30035E+00   -0.16911E+01  4512   0.330E+00    0.123E+00
RMM:   2    -0.233141066015E+04   -0.29250E+00   -0.30714E+00  6580   0.830E-01    0.750E-01
RMM:   3    -0.233143544089E+04   -0.24781E-01   -0.33061E-01  6072   0.315E-01    0.767E-01
RMM:   4    -0.233143228684E+04    0.31541E-02   -0.33382E-02  6095   0.682E-02    0.438E-01
RMM:   5    -0.233143070804E+04    0.15788E-02   -0.38788E-03  5264   0.283E-02    0.274E-01
RMM:   6    -0.233143087046E+04   -0.16242E-03   -0.42793E-03  5794   0.314E-02    0.260E-01
RMM:   7    -0.233142999984E+04    0.87062E-03   -0.13292E-03  5389   0.189E-02    0.762E-02
RMM:   8    -0.233142997209E+04    0.27749E-04   -0.28386E-04  3173   0.885E-03    0.690E-02
RMM:   9    -0.233142990391E+04    0.68185E-04   -0.10848E-04  2978   0.639E-03    0.280E-02
RMM:  10    -0.233142989589E+04    0.80158E-05   -0.39476E-05  2925   0.406E-03
  51 F= -.23528729E+04 E0= -.23528729E+04  d E =-.186344E-01  mag=     4.0000
       N       E                     dE             d eps       ncg     rms          rms(c)
DAV:   1    -0.233139870278E+04    0.31201E-01   -0.21296E+00  4512   0.117E+00    0.439E-01
RMM:   2    -0.233143321954E+04   -0.34517E-01   -0.36470E-01  6456   0.284E-01    0.239E-01
RMM:   3    -0.233143614524E+04   -0.29257E-02   -0.38506E-02  6051   0.113E-01    0.198E-01
RMM:   4    -0.233143610413E+04    0.41107E-04   -0.38557E-03  5224   0.253E-02    0.167E-01
RMM:   5    -0.233143593090E+04    0.17323E-03   -0.65815E-04  4118   0.127E-02    0.121E-01
RMM:   6    -0.233143580655E+04    0.12435E-03   -0.46899E-04  4004   0.127E-02    0.639E-02
RMM:   7    -0.233143575658E+04    0.49971E-04   -0.91671E-05  3125   0.739E-03    0.145E-02
RMM:   8    -0.233143575426E+04    0.23207E-05   -0.14113E-05  2939   0.419E-03
  52 F= -.23528803E+04 E0= -.23528803E+04  d E =-.734938E-02  mag=     4.0000
       N       E                     dE             d eps       ncg     rms          rms(c)
DAV:   1    -0.233130990211E+04    0.12585E+00   -0.71427E+00  4512   0.216E+00    0.808E-01
RMM:   2    -0.233142616521E+04   -0.11626E+00   -0.12283E+00  6425   0.519E-01    0.446E-01
RMM:   3    -0.233143626174E+04   -0.10097E-01   -0.13212E-01  6149   0.208E-01    0.369E-01
RMM:   4    -0.233143597383E+04    0.28791E-03   -0.12897E-02  6098   0.463E-02    0.300E-01
RMM:   5    -0.233143549985E+04    0.47398E-03   -0.22362E-03  5094   0.218E-02    0.230E-01
RMM:   6    -0.233143507166E+04    0.42819E-03   -0.15745E-03  5146   0.219E-02    0.123E-01
RMM:   7    -0.233143489445E+04    0.17721E-03   -0.35837E-04  4461   0.118E-02    0.301E-02
RMM:   8    -0.233143487928E+04    0.15171E-04   -0.40999E-05  3035   0.541E-03    0.163E-02
RMM:   9    -0.233143487386E+04    0.54226E-05   -0.20015E-05  2936   0.396E-03
  53 F= -.23528822E+04 E0= -.23528822E+04  d E =-.928420E-02  mag=     4.0000
       N       E                     dE             d eps       ncg     rms          rms(c)
DAV:   1    -0.233141965151E+04    0.15228E-01   -0.99084E-01  4544   0.804E-01    0.301E-01
RMM:   2    -0.233143582772E+04   -0.16176E-01   -0.17049E-01  6460   0.196E-01    0.171E-01
RMM:   3    -0.233143722922E+04   -0.14015E-02   -0.18156E-02  5896   0.771E-02    0.158E-01
RMM:   4    -0.233143712623E+04    0.10299E-03   -0.18491E-03  3694   0.175E-02    0.113E-01
RMM:   5    -0.233143704665E+04    0.79579E-04   -0.29813E-04  3163   0.983E-03    0.796E-02
RMM:   6    -0.233143700145E+04    0.45199E-04   -0.23941E-04  3382   0.956E-03    0.480E-02
RMM:   7    -0.233143697645E+04    0.24999E-04   -0.52889E-05  3024   0.652E-03    0.138E-02
RMM:   8    -0.233143697674E+04   -0.29188E-06   -0.14192E-05  2928   0.396E-03
  54 F= -.23528832E+04 E0= -.23528832E+04  d E =-.103249E-01  mag=     4.0000
       N       E                     dE             d eps       ncg     rms          rms(c)
DAV:   1    -0.233142714955E+04    0.98269E-02   -0.96446E-01  4512   0.864E-01    0.299E-01
RMM:   2    -0.233144024554E+04   -0.13096E-01   -0.13756E-01  6285   0.192E-01    0.178E-01
RMM:   3    -0.233144133062E+04   -0.10851E-02   -0.14088E-02  5946   0.776E-02    0.176E-01
RMM:   4    -0.233144102596E+04    0.30465E-03   -0.15079E-03  4515   0.181E-02    0.103E-01
RMM:   5    -0.233144099459E+04    0.31376E-04   -0.35597E-04  3513   0.106E-02    0.926E-02
RMM:   6    -0.233144089766E+04    0.96927E-04   -0.25030E-04  4115   0.104E-02    0.321E-02
RMM:   7    -0.233144089299E+04    0.46708E-05   -0.46692E-05  2992   0.647E-03
  55 F= -.23528881E+04 E0= -.23528881E+04  d E =-.484646E-02  mag=     4.0000
       N       E                     dE             d eps       ncg     rms          rms(c)
DAV:   1    -0.233140902650E+04    0.31871E-01   -0.22981E+00  4512   0.133E+00    0.463E-01
RMM:   2    -0.233144033344E+04   -0.31307E-01   -0.32882E-01  6267   0.296E-01    0.276E-01
RMM:   3    -0.233144295110E+04   -0.26177E-02   -0.33679E-02  6061   0.121E-01    0.273E-01
RMM:   4    -0.233144221577E+04    0.73533E-03   -0.36080E-03  5602   0.278E-02    0.159E-01
RMM:   5    -0.233144215351E+04    0.62264E-04   -0.88011E-04  4657   0.150E-02    0.146E-01
RMM:   6    -0.233144191881E+04    0.23470E-03   -0.58721E-04  4798   0.145E-02    0.516E-02
RMM:   7    -0.233144190783E+04    0.10982E-04   -0.11463E-04  3098   0.870E-03    0.375E-02
RMM:   8    -0.233144188934E+04    0.18487E-04   -0.33389E-05  2930   0.485E-03    0.139E-02
RMM:   9    -0.233144188478E+04    0.45652E-05   -0.81426E-06  2923   0.293E-03
  56 F= -.23528905E+04 E0= -.23528905E+04  d E =-.730041E-02  mag=     4.0000
       N       E                     dE             d eps       ncg     rms          rms(c)
DAV:   1    -0.233143678415E+04    0.51052E-02   -0.58845E-01  4576   0.671E-01    0.219E-01
RMM:   2    -0.233144490481E+04   -0.81207E-02   -0.84248E-02  6443   0.147E-01    0.148E-01
RMM:   3    -0.233144557793E+04   -0.67313E-03   -0.86509E-03  5659   0.563E-02    0.147E-01
RMM:   4    -0.233144538179E+04    0.19614E-03   -0.92084E-04  3247   0.135E-02    0.783E-02
RMM:   5    -0.233144536782E+04    0.13963E-04   -0.19522E-04  3122   0.790E-03    0.689E-02
RMM:   6    -0.233144532081E+04    0.47017E-04   -0.13693E-04  3122   0.789E-03    0.257E-02
RMM:   7    -0.233144532120E+04   -0.39443E-06   -0.32889E-05  2957   0.553E-03
  57 F= -.23528946E+04 E0= -.23528946E+04  d E =-.408975E-02  mag=     4.0000
       N       E                     dE             d eps       ncg     rms          rms(c)
DAV:   1    -0.233137454829E+04    0.70773E-01   -0.52910E+00  4512   0.201E+00    0.658E-01
RMM:   2    -0.233144751300E+04   -0.72965E-01   -0.75927E-01  6528   0.440E-01    0.430E-01
RMM:   3    -0.233145378935E+04   -0.62763E-02   -0.78476E-02  6324   0.168E-01    0.425E-01
RMM:   4    -0.233145209013E+04    0.16992E-02   -0.81829E-03  5869   0.394E-02    0.231E-01
RMM:   5    -0.233145199647E+04    0.93661E-04   -0.18253E-03  5109   0.191E-02    0.211E-01
RMM:   6    -0.233145155799E+04    0.43849E-03   -0.11881E-03  4971   0.193E-02    0.802E-02
RMM:   7    -0.233145155628E+04    0.17018E-05   -0.28274E-04  3387   0.112E-02    0.638E-02
RMM:   8    -0.233145150274E+04    0.53542E-04   -0.70798E-05  2970   0.596E-03    0.176E-02
RMM:   9    -0.233145149745E+04    0.52956E-05   -0.12996E-05  2962   0.305E-03
  58 F= -.23529028E+04 E0= -.23529028E+04  d E =-.122737E-01  mag=     4.0000
       N       E                     dE             d eps       ncg     rms          rms(c)
DAV:   1    -0.233113499745E+04    0.31651E+00   -0.21203E+01  4512   0.403E+00    0.132E+00
RMM:   2    -0.233142910601E+04   -0.29411E+00   -0.30650E+00  6489   0.878E-01    0.863E-01
RMM:   3    -0.233145565991E+04   -0.26554E-01   -0.32755E-01  6342   0.341E-01    0.860E-01
RMM:   4    -0.233144838214E+04    0.72778E-02   -0.32446E-02  6224   0.786E-02    0.463E-01
RMM:   5    -0.233144792959E+04    0.45256E-03   -0.74181E-03  5621   0.361E-02    0.420E-01
RMM:   6    -0.233144626097E+04    0.16686E-02   -0.48054E-03  5474   0.370E-02    0.171E-01
RMM:   7    -0.233144622063E+04    0.40338E-04   -0.12209E-03  5146   0.205E-02    0.133E-01
RMM:   8    -0.233144599372E+04    0.22691E-03   -0.29728E-04  3134   0.940E-03    0.388E-02
RMM:   9    -0.233144596913E+04    0.24593E-04   -0.70208E-05  3052   0.526E-03    0.256E-02
RMM:  10    -0.233144595701E+04    0.12123E-04   -0.38034E-05  2967   0.470E-03    0.881E-03
RMM:  11    -0.233144595675E+04    0.25598E-06   -0.92876E-06  2934   0.336E-03
  59 F= -.23529015E+04 E0= -.23529015E+04  d E =-.109598E-01  mag=     4.0000
       N       E                     dE             d eps       ncg     rms          rms(c)
DAV:   1    -0.233135844365E+04    0.87513E-01   -0.64089E+00  4512   0.221E+00    0.732E-01
RMM:   2    -0.233144805724E+04   -0.89614E-01   -0.92540E-01  6498   0.494E-01    0.523E-01
RMM:   3    -0.233145479510E+04   -0.67379E-02   -0.97871E-02  6319   0.185E-01    0.500E-01
RMM:   4    -0.233145263499E+04    0.21601E-02   -0.10334E-02  5854   0.432E-02    0.265E-01
RMM:   5    -0.233145238536E+04    0.24963E-03   -0.20680E-03  5231   0.214E-02    0.223E-01
RMM:   6    -0.233145194074E+04    0.44461E-03   -0.14738E-03  5079   0.207E-02    0.100E-01
RMM:   7    -0.233145191253E+04    0.28219E-04   -0.38258E-04  4164   0.128E-02    0.702E-02
RMM:   8    -0.233145184669E+04    0.65839E-04   -0.10965E-04  3020   0.657E-03    0.260E-02
RMM:   9    -0.233145183375E+04    0.12940E-04   -0.24129E-05  2930   0.417E-03    0.112E-02
RMM:  10    -0.233145183205E+04    0.16944E-05   -0.10492E-05  2945   0.236E-03
  60 F= -.23529050E+04 E0= -.23529050E+04  d E =-.144770E-01  mag=     4.0000
       N       E                     dE             d eps       ncg     rms          rms(c)
DAV:   1    -0.233142122056E+04    0.30613E-01   -0.25960E+00  4512   0.149E+00    0.497E-01
RMM:   2    -0.233145623282E+04   -0.35012E-01   -0.36714E-01  6282   0.327E-01    0.281E-01
RMM:   3    -0.233145934470E+04   -0.31119E-02   -0.37649E-02  6066   0.131E-01    0.307E-01
RMM:   4    -0.233145849789E+04    0.84681E-03   -0.39490E-03  5645   0.297E-02    0.164E-01
RMM:   5    -0.233145845469E+04    0.43202E-04   -0.10358E-03  5012   0.170E-02    0.152E-01
RMM:   6    -0.233145821086E+04    0.24383E-03   -0.65887E-04  4699   0.150E-02    0.544E-02
RMM:   7    -0.233145819748E+04    0.13374E-04   -0.11160E-04  3117   0.855E-03    0.372E-02
RMM:   8    -0.233145818108E+04    0.16403E-04   -0.35242E-05  2932   0.509E-03    0.148E-02
RMM:   9    -0.233145817786E+04    0.32193E-05   -0.70224E-06  2910   0.269E-03
  61 F= -.23529125E+04 E0= -.23529125E+04  d E =-.747478E-02  mag=     4.0000
       N       E                     dE             d eps       ncg     rms          rms(c)
DAV:   1    -0.233144608539E+04    0.12096E-01   -0.87840E-01  4512   0.869E-01    0.290E-01
RMM:   2    -0.233145793993E+04   -0.11855E-01   -0.12417E-01  6281   0.191E-01    0.165E-01
RMM:   3    -0.233145899689E+04   -0.10570E-02   -0.12633E-02  5928   0.749E-02    0.183E-01
RMM:   4    -0.233145869406E+04    0.30282E-03   -0.13395E-03  4108   0.174E-02    0.955E-02
RMM:   5    -0.233145867936E+04    0.14700E-04   -0.34909E-04  3945   0.109E-02    0.878E-02
RMM:   6    -0.233145859880E+04    0.80563E-04   -0.23422E-04  3665   0.988E-03    0.322E-02
RMM:   7    -0.233145859391E+04    0.48943E-05   -0.40631E-05  2975   0.617E-03
  62 F= -.23529136E+04 E0= -.23529136E+04  d E =-.856106E-02  mag=     4.0000
       N       E                     dE             d eps       ncg     rms          rms(c)
DAV:   1    -0.233144498447E+04    0.13614E-01   -0.13403E+00  4512   0.106E+00    0.344E-01
RMM:   2    -0.233146172077E+04   -0.16736E-01   -0.17744E-01  6350   0.230E-01    0.168E-01
RMM:   3    -0.233146302072E+04   -0.13000E-02   -0.18288E-02  5839   0.907E-02    0.124E-01
RMM:   4    -0.233146314829E+04   -0.12757E-03   -0.18871E-03  4819   0.205E-02    0.127E-01
RMM:   5    -0.233146300055E+04    0.14775E-03   -0.44142E-04  4505   0.125E-02    0.796E-02
RMM:   6    -0.233146297266E+04    0.27890E-04   -0.20629E-04  3097   0.938E-03    0.551E-02
RMM:   7    -0.233146293932E+04    0.33341E-04   -0.50916E-05  2954   0.621E-03    0.149E-02
RMM:   8    -0.233146293898E+04    0.33840E-06   -0.13500E-05  2914   0.355E-03
  63 F= -.23529188E+04 E0= -.23529188E+04  d E =-.519281E-02  mag=     4.0000
       N       E                     dE             d eps       ncg     rms          rms(c)
DAV:   1    -0.233139192862E+04    0.71011E-01   -0.52397E+00  4512   0.210E+00    0.679E-01
RMM:   2    -0.233145742282E+04   -0.65494E-01   -0.69354E-01  6324   0.453E-01    0.338E-01
RMM:   3    -0.233146258921E+04   -0.51664E-02   -0.72415E-02  5983   0.179E-01    0.258E-01
RMM:   4    -0.233146287632E+04   -0.28711E-03   -0.72221E-03  5969   0.398E-02    0.248E-01
RMM:   5    -0.233146244848E+04    0.42784E-03   -0.17155E-03  5289   0.226E-02    0.176E-01
RMM:   6    -0.233146223566E+04    0.21282E-03   -0.83887E-04  4474   0.168E-02    0.955E-02
RMM:   7    -0.233146212048E+04    0.11518E-03   -0.17236E-04  3662   0.965E-03    0.215E-02
RMM:   8    -0.233146211270E+04    0.77775E-05   -0.26884E-05  2996   0.488E-03
  64 F= -.23529197E+04 E0= -.23529197E+04  d E =-.608513E-02  mag=     4.0000
       N       E                     dE             d eps       ncg     rms          rms(c)
DAV:   1    -0.233145167598E+04    0.10444E-01   -0.91666E-01  4512   0.879E-01    0.284E-01
RMM:   2    -0.233146317500E+04   -0.11499E-01   -0.12197E-01  6328   0.191E-01    0.139E-01
RMM:   3    -0.233146405910E+04   -0.88410E-03   -0.12495E-02  5796   0.722E-02    0.113E-01
RMM:   4    -0.233146410817E+04   -0.49070E-04   -0.12783E-03  3905   0.167E-02    0.108E-01
RMM:   5    -0.233146401412E+04    0.94051E-04   -0.31655E-04  3792   0.112E-02    0.647E-02
RMM:   6    -0.233146399634E+04    0.17781E-04   -0.15932E-04  3079   0.868E-03    0.428E-02
RMM:   7    -0.233146397199E+04    0.24353E-04   -0.36596E-05  2967   0.605E-03    0.101E-02
RMM:   8    -0.233146397118E+04    0.80401E-06   -0.90869E-06  2930   0.316E-03
  65 F= -.23529208E+04 E0= -.23529208E+04  d E =-.721729E-02  mag=     4.0000
       N       E                     dE             d eps       ncg     rms          rms(c)
DAV:   1    -0.233144799750E+04    0.15974E-01   -0.17844E+00  4512   0.121E+00    0.390E-01
RMM:   2    -0.233146668704E+04   -0.18690E-01   -0.19885E-01  6197   0.249E-01    0.207E-01
RMM:   3    -0.233146811242E+04   -0.14254E-02   -0.20194E-02  5881   0.100E-01    0.182E-01
RMM:   4    -0.233146791339E+04    0.19903E-03   -0.21899E-03  5307   0.236E-02    0.128E-01
RMM:   5    -0.233146780495E+04    0.10845E-03   -0.60870E-04  4655   0.152E-02    0.930E-02
RMM:   6    -0.233146776141E+04    0.43532E-04   -0.27349E-04  3340   0.110E-02    0.661E-02
RMM:   7    -0.233146771549E+04    0.45920E-04   -0.59601E-05  2980   0.651E-03    0.195E-02
RMM:   8    -0.233146771157E+04    0.39201E-05   -0.20554E-05  2917   0.414E-03
  66 F= -.23529258E+04 E0= -.23529258E+04  d E =-.499031E-02  mag=     4.0000
       N       E                     dE             d eps       ncg     rms          rms(c)
DAV:   1    -0.233146378883E+04    0.39267E-02   -0.34260E-01  4576   0.530E-01    0.171E-01
RMM:   2    -0.233146739110E+04   -0.36023E-02   -0.38257E-02  6236   0.109E-01    0.911E-02
RMM:   3    -0.233146766969E+04   -0.27860E-03   -0.39113E-03  5226   0.425E-02    0.824E-02
RMM:   4    -0.233146763154E+04    0.38158E-04   -0.42447E-04  3206   0.107E-02    0.588E-02
RMM:   5    -0.233146761758E+04    0.13957E-04   -0.12528E-04  3103   0.775E-03    0.501E-02
RMM:   6    -0.233146759654E+04    0.21041E-04   -0.66926E-05  2942   0.660E-03    0.247E-02
RMM:   7    -0.233146758965E+04    0.68876E-05   -0.13602E-05  2923   0.419E-03
  67 F= -.23529262E+04 E0= -.23529262E+04  d E =-.542116E-02  mag=     4.0000
       N       E                     dE             d eps       ncg     rms          rms(c)
DAV:   1    -0.233145054067E+04    0.17056E-01   -0.19304E+00  4512   0.128E+00    0.401E-01
RMM:   2    -0.233147085247E+04   -0.20312E-01   -0.21339E-01  6188   0.254E-01    0.240E-01
RMM:   3    -0.233147243239E+04   -0.15799E-02   -0.21655E-02  5886   0.101E-01    0.221E-01
RMM:   4    -0.233147198643E+04    0.44597E-03   -0.23478E-03  5368   0.241E-02    0.131E-01
RMM:   5    -0.233147196652E+04    0.19901E-04   -0.65828E-04  4473   0.151E-02    0.124E-01
RMM:   6    -0.233147184461E+04    0.12191E-03   -0.40636E-04  3874   0.124E-02    0.653E-02
RMM:   7    -0.233147180429E+04    0.40328E-04   -0.72146E-05  3032   0.723E-03    0.235E-02
RMM:   8    -0.233147179833E+04    0.59541E-05   -0.23295E-05  2922   0.416E-03
  68 F= -.23529317E+04 E0= -.23529317E+04  d E =-.545809E-02  mag=     4.0000
       N       E                     dE             d eps       ncg     rms          rms(c)
DAV:   1    -0.233145790863E+04    0.13896E-01   -0.12563E+00  4512   0.104E+00    0.324E-01
RMM:   2    -0.233147113736E+04   -0.13229E-01   -0.13882E-01  6143   0.204E-01    0.196E-01
RMM:   3    -0.233147218282E+04   -0.10455E-02   -0.14227E-02  5810   0.813E-02    0.185E-01
RMM:   4    -0.233147187979E+04    0.30303E-03   -0.15354E-03  5000   0.194E-02    0.109E-01
RMM:   5    -0.233147188710E+04   -0.73077E-05   -0.44644E-04  4089   0.122E-02    0.109E-01
RMM:   6    -0.233147177407E+04    0.11303E-03   -0.28999E-04  3622   0.106E-02    0.461E-02
RMM:   7    -0.233147175552E+04    0.18553E-04   -0.48296E-05  2994   0.665E-03    0.199E-02
RMM:   8    -0.233147175127E+04    0.42458E-05   -0.16711E-05  2913   0.359E-03
  69 F= -.23529327E+04 E0= -.23529327E+04  d E =-.643360E-02  mag=     4.0000
       N       E                     dE             d eps       ncg     rms          rms(c)
DAV:   1    -0.233146013215E+04    0.11623E-01   -0.14092E+00  4512   0.108E+00    0.337E-01
RMM:   2    -0.233147449471E+04   -0.14363E-01   -0.15063E-01  6170   0.211E-01    0.197E-01
RMM:   3    -0.233147561724E+04   -0.11225E-02   -0.15326E-02  5767   0.840E-02    0.180E-01
RMM:   4    -0.233147536730E+04    0.24994E-03   -0.16712E-03  5052   0.199E-02    0.115E-01
RMM:   5    -0.233147535005E+04    0.17250E-04   -0.47353E-04  4215   0.127E-02    0.108E-01
RMM:   6    -0.233147525987E+04    0.90185E-04   -0.29613E-04  3260   0.107E-02    0.544E-02
RMM:   7    -0.233147523039E+04    0.29477E-04   -0.47329E-05  2989   0.653E-03    0.170E-02
RMM:   8    -0.233147522825E+04    0.21403E-05   -0.15496E-05  2915   0.367E-03
  70 F= -.23529371E+04 E0= -.23529371E+04  d E =-.447354E-02  mag=     4.0000
       N       E                     dE             d eps       ncg     rms          rms(c)
DAV:   1    -0.233144005133E+04    0.35179E-01   -0.32725E+00  4512   0.165E+00    0.513E-01
RMM:   2    -0.233147344385E+04   -0.33393E-01   -0.35044E-01  6145   0.321E-01    0.298E-01
RMM:   3    -0.233147605995E+04   -0.26161E-02   -0.35944E-02  5845   0.129E-01    0.269E-01
RMM:   4    -0.233147549687E+04    0.56309E-03   -0.38711E-03  5756   0.301E-02    0.175E-01
RMM:   5    -0.233147543340E+04    0.63468E-04   -0.10903E-03  4850   0.187E-02    0.159E-01
RMM:   6    -0.233147525656E+04    0.17683E-03   -0.68498E-04  4296   0.150E-02    0.880E-02
RMM:   7    -0.233147517658E+04    0.79987E-04   -0.11055E-04  3139   0.814E-03    0.246E-02
RMM:   8    -0.233147517170E+04    0.48754E-05   -0.31622E-05  2946   0.456E-03
  71 F= -.23529386E+04 E0= -.23529386E+04  d E =-.596319E-02  mag=     4.0000
       N       E                     dE             d eps       ncg     rms          rms(c)
DAV:   1    -0.233146199871E+04    0.13178E-01   -0.16241E+00  4512   0.112E+00    0.354E-01
RMM:   2    -0.233147785147E+04   -0.15853E-01   -0.16646E-01  6274   0.218E-01    0.203E-01
RMM:   3    -0.233147909047E+04   -0.12390E-02   -0.17063E-02  5849   0.866E-02    0.176E-01
RMM:   4    -0.233147888305E+04    0.20742E-03   -0.18753E-03  5181   0.207E-02    0.122E-01
RMM:   5    -0.233147882269E+04    0.60354E-04   -0.54250E-04  4508   0.137E-02    0.100E-01
RMM:   6    -0.233147876949E+04    0.53209E-04   -0.28004E-04  3085   0.102E-02    0.615E-02
RMM:   7    -0.233147873218E+04    0.37306E-04   -0.42202E-05  2954   0.571E-03    0.164E-02
RMM:   8    -0.233147872975E+04    0.24279E-05   -0.14981E-05  2926   0.349E-03
  72 F= -.23529431E+04 E0= -.23529431E+04  d E =-.452506E-02  mag=     4.0000
       N       E                     dE             d eps       ncg     rms          rms(c)
DAV:   1    -0.233144834419E+04    0.30388E-01   -0.30411E+00  4512   0.153E+00    0.483E-01
RMM:   2    -0.233147802336E+04   -0.29679E-01   -0.31185E-01  6225   0.299E-01    0.277E-01
RMM:   3    -0.233148031588E+04   -0.22925E-02   -0.31897E-02  5934   0.117E-01    0.238E-01
RMM:   4    -0.233147993569E+04    0.38019E-03   -0.34947E-03  5629   0.280E-02    0.167E-01
RMM:   5    -0.233147977717E+04    0.15852E-03   -0.10032E-03  4986   0.185E-02    0.123E-01
RMM:   6    -0.233147972917E+04    0.47994E-04   -0.49789E-04  3473   0.129E-02    0.913E-02
RMM:   7    -0.233147964326E+04    0.85918E-04   -0.82300E-05  3006   0.701E-03    0.212E-02
RMM:   8    -0.233147963951E+04    0.37416E-05   -0.26531E-05  2944   0.418E-03
  73 F= -.23529454E+04 E0= -.23529454E+04  d E =-.677647E-02  mag=     4.0000
       N       E                     dE             d eps       ncg     rms          rms(c)
DAV:   1    -0.233146451954E+04    0.15124E-01   -0.19188E+00  4512   0.123E+00    0.398E-01
RMM:   2    -0.233148453190E+04   -0.20012E-01   -0.21138E-01  6254   0.251E-01    0.227E-01
RMM:   3    -0.233148603235E+04   -0.15005E-02   -0.22058E-02  5911   0.101E-01    0.184E-01
RMM:   4    -0.233148580458E+04    0.22777E-03   -0.23043E-03  5428   0.235E-02    0.138E-01
RMM:   5    -0.233148561789E+04    0.18669E-03   -0.68703E-04  4681   0.164E-02    0.647E-02
RMM:   6    -0.233148564090E+04   -0.23013E-04   -0.24441E-04  3487   0.104E-02    0.721E-02
RMM:   7    -0.233148557660E+04    0.64303E-04   -0.75196E-05  2976   0.661E-03    0.220E-02
RMM:   8    -0.233148557125E+04    0.53555E-05   -0.18740E-05  2938   0.361E-03
  74 F= -.23529524E+04 E0= -.23529524E+04  d E =-.697584E-02  mag=     4.0000
       N       E                     dE             d eps       ncg     rms          rms(c)
DAV:   1    -0.233145990342E+04    0.25673E-01   -0.24330E+00  4512   0.138E+00    0.448E-01
RMM:   2    -0.233148529059E+04   -0.25387E-01   -0.26817E-01  6249   0.283E-01    0.255E-01
RMM:   3    -0.233148720281E+04   -0.19122E-02   -0.28006E-02  5930   0.114E-01    0.208E-01
RMM:   4    -0.233148691085E+04    0.29196E-03   -0.29197E-03  5554   0.264E-02    0.158E-01
RMM:   5    -0.233148669698E+04    0.21387E-03   -0.88664E-04  4896   0.182E-02    0.918E-02
RMM:   6    -0.233148670417E+04   -0.71850E-05   -0.37792E-04  3927   0.117E-02    0.928E-02
RMM:   7    -0.233148660751E+04    0.96656E-04   -0.98951E-05  3006   0.705E-03    0.215E-02
RMM:   8    -0.233148660135E+04    0.61634E-05   -0.25106E-05  2944   0.421E-03
  75 F= -.23529546E+04 E0= -.23529546E+04  d E =-.919481E-02  mag=     4.0000
       N       E                     dE             d eps       ncg     rms          rms(c)
DAV:   1    -0.233146590125E+04    0.20706E-01   -0.20531E+00  4512   0.126E+00    0.412E-01
RMM:   2    -0.233148937485E+04   -0.23474E-01   -0.24666E-01  6386   0.265E-01    0.241E-01
RMM:   3    -0.233149132794E+04   -0.19531E-02   -0.25819E-02  5999   0.103E-01    0.212E-01
RMM:   4    -0.233149095331E+04    0.37463E-03   -0.25948E-03  5230   0.238E-02    0.144E-01
RMM:   5    -0.233149087808E+04    0.75231E-04   -0.73106E-04  4591   0.155E-02    0.119E-01
RMM:   6    -0.233149078243E+04    0.95651E-04   -0.40336E-04  3980   0.114E-02    0.723E-02
RMM:   7    -0.233149073196E+04    0.50466E-04   -0.74925E-05  2999   0.670E-03    0.201E-02
RMM:   8    -0.233149072708E+04    0.48839E-05   -0.21233E-05  2932   0.396E-03
  76 F= -.23529600E+04 E0= -.23529600E+04  d E =-.536461E-02  mag=     4.0000
       N       E                     dE             d eps       ncg     rms          rms(c)
DAV:   1    -0.233147419537E+04    0.16537E-01   -0.13985E+00  4544   0.104E+00    0.340E-01
RMM:   2    -0.233149020724E+04   -0.16012E-01   -0.16821E-01  6353   0.219E-01    0.200E-01
RMM:   3    -0.233149153034E+04   -0.13231E-02   -0.17526E-02  5918   0.847E-02    0.176E-01
RMM:   4    -0.233149125860E+04    0.27173E-03   -0.17618E-03  4861   0.198E-02    0.118E-01
RMM:   5    -0.233149120796E+04    0.50640E-04   -0.49911E-04  4238   0.131E-02    0.978E-02
RMM:   6    -0.233149114393E+04    0.64032E-04   -0.27211E-04  3413   0.971E-03    0.598E-02
RMM:   7    -0.233149110960E+04    0.34329E-04   -0.51642E-05  2966   0.616E-03    0.165E-02
RMM:   8    -0.233149110630E+04    0.33043E-05   -0.15290E-05  2925   0.358E-03
  77 F= -.23529614E+04 E0= -.23529614E+04  d E =-.677516E-02  mag=     4.0000
       N       E                     dE             d eps       ncg     rms          rms(c)
DAV:   1    -0.233147727421E+04    0.13835E-01   -0.14075E+00  4512   0.109E+00    0.369E-01
RMM:   2    -0.233149474559E+04   -0.17471E-01   -0.18346E-01  6205   0.233E-01    0.212E-01
RMM:   3    -0.233149604423E+04   -0.12986E-02   -0.18394E-02  5909   0.920E-02    0.180E-01
RMM:   4    -0.233149575043E+04    0.29381E-03   -0.19664E-03  5156   0.219E-02    0.116E-01
RMM:   5    -0.233149562386E+04    0.12656E-03   -0.50083E-04  4522   0.143E-02    0.594E-02
RMM:   6    -0.233149561655E+04    0.73182E-05   -0.21218E-04  3520   0.102E-02    0.465E-02
RMM:   7    -0.233149558539E+04    0.31156E-04   -0.58377E-05  2980   0.661E-03    0.201E-02
RMM:   8    -0.233149558277E+04    0.26172E-05   -0.14890E-05  2918   0.338E-03
  78 F= -.23529670E+04 E0= -.23529670E+04  d E =-.559084E-02  mag=     4.0000
       N       E                     dE             d eps       ncg     rms          rms(c)
DAV:   1    -0.233148372437E+04    0.11861E-01   -0.94553E-01  4528   0.892E-01    0.303E-01
RMM:   2    -0.233149547257E+04   -0.11748E-01   -0.12327E-01  6220   0.191E-01    0.174E-01
RMM:   3    -0.233149635189E+04   -0.87932E-03   -0.12328E-02  5847   0.741E-02    0.149E-01
RMM:   4    -0.233149614549E+04    0.20640E-03   -0.13165E-03  4670   0.180E-02    0.950E-02
RMM:   5    -0.233149606335E+04    0.82139E-04   -0.33730E-04  4224   0.121E-02    0.509E-02
RMM:   6    -0.233149606381E+04   -0.45692E-06   -0.14958E-04  3140   0.877E-03    0.478E-02
RMM:   7    -0.233149603553E+04    0.28278E-04   -0.46859E-05  2947   0.602E-03    0.204E-02
RMM:   8    -0.233149603269E+04    0.28346E-05   -0.12927E-05  2918   0.313E-03
  79 F= -.23529683E+04 E0= -.23529683E+04  d E =-.696090E-02  mag=     4.0000
       N       E                     dE             d eps       ncg     rms          rms(c)
DAV:   1    -0.233147821163E+04    0.17824E-01   -0.15590E+00  4512   0.117E+00    0.393E-01
RMM:   2    -0.233149781431E+04   -0.19603E-01   -0.20568E-01  6148   0.243E-01    0.226E-01
RMM:   3    -0.233149924651E+04   -0.14322E-02   -0.21046E-02  5907   0.992E-02    0.190E-01
RMM:   4    -0.233149889446E+04    0.35206E-03   -0.22157E-03  5239   0.226E-02    0.121E-01
RMM:   5    -0.233149877290E+04    0.12156E-03   -0.55149E-04  4578   0.143E-02    0.841E-02
RMM:   6    -0.233149876624E+04    0.66584E-05   -0.35385E-04  3707   0.115E-02    0.800E-02
RMM:   7    -0.233149870428E+04    0.61954E-04   -0.80517E-05  3001   0.737E-03    0.222E-02
RMM:   8    -0.233149869938E+04    0.49082E-05   -0.21043E-05  2927   0.414E-03
[...]
RMM:   5    -0.233155281818E+04    0.20563E-04   -0.13103E-04  3145   0.757E-03    0.424E-02
RMM:   6    -0.233155282151E+04   -0.33255E-05   -0.81626E-05  2982   0.651E-03
 126 F= -.23530660E+04 E0= -.23530660E+04  d E =-.439481E-02  mag=     4.0000
       N       E                     dE             d eps       ncg     rms          rms(c)
DAV:   1    -0.233152629971E+04    0.26518E-01   -0.28162E+00  4512   0.137E+00    0.482E-01
RMM:   2    -0.233155428123E+04   -0.27982E-01   -0.29388E-01  6232   0.287E-01    0.311E-01
RMM:   3    -0.233155626553E+04   -0.19843E-02   -0.30034E-02  5927   0.109E-01    0.269E-01
RMM:   4    -0.233155568108E+04    0.58445E-03   -0.34255E-03  5469   0.275E-02    0.166E-01
RMM:   5    -0.233155548202E+04    0.19906E-03   -0.10188E-03  4718   0.182E-02    0.103E-01
RMM:   6    -0.233155553992E+04   -0.57900E-04   -0.54551E-04  3867   0.135E-02    0.116E-01
RMM:   7    -0.233155538539E+04    0.15453E-03   -0.14606E-04  3079   0.764E-03    0.160E-02
RMM:   8    -0.233155538183E+04    0.35625E-05   -0.22780E-05  2982   0.403E-03
 127 F= -.23530701E+04 E0= -.23530701E+04  d E =-.410027E-02  mag=     4.0000
       N       E                     dE             d eps       ncg     rms          rms(c)
DAV:   1    -0.233155021461E+04    0.51708E-02   -0.47008E-01  4544   0.559E-01    0.197E-01
RMM:   2    -0.233155490846E+04   -0.46938E-02   -0.49090E-02  6284   0.118E-01    0.131E-01
RMM:   3    -0.233155522467E+04   -0.31621E-03   -0.49746E-03  5312   0.438E-02    0.112E-01
RMM:   4    -0.233155510969E+04    0.11498E-03   -0.57176E-04  3275   0.118E-02    0.667E-02
RMM:   5    -0.233155507403E+04    0.35655E-04   -0.16572E-04  3281   0.865E-03    0.401E-02
RMM:   6    -0.233155508539E+04   -0.11350E-04   -0.93119E-05  3014   0.710E-03    0.479E-02
RMM:   7    -0.233155506056E+04    0.24823E-04   -0.26619E-05  2934   0.454E-03    0.774E-03
RMM:   8    -0.233155506042E+04    0.14632E-06   -0.62401E-06  2883   0.266E-03
 128 F= -.23530704E+04 E0= -.23530704E+04  d E =-.441003E-02  mag=     4.0000
       N       E                     dE             d eps       ncg     rms          rms(c)
DAV:   1    -0.233153521992E+04    0.19841E-01   -0.20753E+00  4512   0.118E+00    0.410E-01
RMM:   2    -0.233155649008E+04   -0.21270E-01   -0.22254E-01  6334   0.249E-01    0.272E-01
RMM:   3    -0.233155801231E+04   -0.15222E-02   -0.22428E-02  5981   0.918E-02    0.238E-01
RMM:   4    -0.233155757091E+04    0.44140E-03   -0.25423E-03  5156   0.230E-02    0.141E-01
RMM:   5    -0.233155747578E+04    0.95128E-04   -0.74256E-04  4343   0.150E-02    0.994E-02
RMM:   6    -0.233155748795E+04   -0.12171E-04   -0.41021E-04  3278   0.117E-02    0.948E-02
RMM:   7    -0.233155737847E+04    0.10948E-03   -0.96980E-05  3052   0.674E-03    0.129E-02
RMM:   8    -0.233155737635E+04    0.21168E-05   -0.15799E-05  2962   0.351E-03
 129 F= -.23530740E+04 E0= -.23530740E+04  d E =-.352150E-02  mag=     4.0000
       N       E                     dE             d eps       ncg     rms          rms(c)
DAV:   1    -0.233153735710E+04    0.20021E-01   -0.18522E+00  4512   0.112E+00    0.386E-01
RMM:   2    -0.233155635585E+04   -0.18999E-01   -0.19875E-01  6327   0.236E-01    0.257E-01
RMM:   3    -0.233155770659E+04   -0.13507E-02   -0.20058E-02  5957   0.858E-02    0.224E-01
RMM:   4    -0.233155731470E+04    0.39190E-03   -0.22809E-03  5057   0.217E-02    0.132E-01
RMM:   5    -0.233155722448E+04    0.90220E-04   -0.65604E-04  4278   0.143E-02    0.909E-02
RMM:   6    -0.233155724335E+04   -0.18869E-04   -0.35843E-04  3279   0.111E-02    0.906E-02
RMM:   7    -0.233155714385E+04    0.99493E-04   -0.87909E-05  3021   0.645E-03    0.126E-02
RMM:   8    -0.233155714239E+04    0.14597E-05   -0.15898E-05  2964   0.345E-03
 130 F= -.23530749E+04 E0= -.23530749E+04  d E =-.443296E-02  mag=     4.0000
       N       E                     dE             d eps       ncg     rms          rms(c)
DAV:   1    -0.233153349462E+04    0.23649E-01   -0.28741E+00  4512   0.141E+00    0.477E-01
RMM:   2    -0.233155883297E+04   -0.25338E-01   -0.26756E-01  6231   0.288E-01    0.311E-01
RMM:   3    -0.233156061513E+04   -0.17822E-02   -0.26811E-02  5971   0.107E-01    0.287E-01
RMM:   4    -0.233156003975E+04    0.57538E-03   -0.32069E-03  5511   0.273E-02    0.174E-01
RMM:   5    -0.233156001559E+04    0.24160E-04   -0.11706E-03  4942   0.191E-02    0.148E-01
RMM:   6    -0.233155984724E+04    0.16835E-03   -0.61429E-04  4146   0.138E-02    0.822E-02
RMM:   7    -0.233155975236E+04    0.94876E-04   -0.10396E-04  3084   0.726E-03    0.179E-02
RMM:   8    -0.233155975034E+04    0.20263E-05   -0.26370E-05  2983   0.422E-03
 131 F= -.23530788E+04 E0= -.23530788E+04  d E =-.394166E-02  mag=     4.0000
       N       E                     dE             d eps       ncg     rms          rms(c)
DAV:   1    -0.233155717653E+04    0.25758E-02   -0.26204E-01  4592   0.424E-01    0.144E-01
RMM:   2    -0.233155949080E+04   -0.23143E-02   -0.24407E-02  6293   0.873E-02    0.916E-02
RMM:   3    -0.233155965596E+04   -0.16516E-03   -0.24510E-03  4302   0.324E-02    0.826E-02
RMM:   4    -0.233155960824E+04    0.47716E-04   -0.29643E-04  3082   0.940E-03    0.521E-02
RMM:   5    -0.233155960096E+04    0.72772E-05   -0.10691E-04  3117   0.693E-03    0.409E-02
RMM:   6    -0.233155959299E+04    0.79708E-05   -0.54539E-05  2957   0.591E-03
 132 F= -.23530791E+04 E0= -.23530791E+04  d E =-.418822E-02  mag=     4.0000
       N       E                     dE             d eps       ncg     rms          rms(c)
DAV:   1    -0.233154864210E+04    0.10959E-01   -0.18146E+00  4512   0.112E+00    0.373E-01
RMM:   2    -0.233156187531E+04   -0.13233E-01   -0.14151E-01  6097   0.215E-01    0.245E-01
RMM:   3    -0.233156288144E+04   -0.10061E-02   -0.14462E-02  5790   0.827E-02    0.260E-01
RMM:   4    -0.233156238117E+04    0.50027E-03   -0.18261E-03  5044   0.217E-02    0.136E-01
RMM:   5    -0.233156240313E+04   -0.21963E-04   -0.77180E-04  4747   0.160E-02    0.122E-01
RMM:   6    -0.233156223001E+04    0.17312E-03   -0.42377E-04  3631   0.117E-02    0.476E-02
RMM:   7    -0.233156219884E+04    0.31170E-04   -0.53329E-05  2990   0.634E-03    0.149E-02
RMM:   8    -0.233156219732E+04    0.15223E-05   -0.16462E-05  2958   0.339E-03
 133 F= -.23530826E+04 E0= -.23530826E+04  d E =-.358468E-02  mag=     4.0000
       N       E                     dE             d eps       ncg     rms          rms(c)
DAV:   1    -0.233155773540E+04    0.44634E-02   -0.57848E-01  4544   0.630E-01    0.211E-01
RMM:   2    -0.233156195040E+04   -0.42150E-02   -0.45039E-02  6121   0.122E-01    0.137E-01
RMM:   3    -0.233156226779E+04   -0.31739E-03   -0.46019E-03  5425   0.461E-02    0.144E-01
RMM:   4    -0.233156211243E+04    0.15536E-03   -0.57810E-04  3541   0.126E-02    0.765E-02
RMM:   5    -0.233156212327E+04   -0.10842E-04   -0.25187E-04  3630   0.995E-03    0.703E-02
RMM:   6    -0.233156206412E+04    0.59149E-04   -0.13260E-04  3051   0.783E-03    0.258E-02
RMM:   7    -0.233156205486E+04    0.92558E-05   -0.17561E-05  2943   0.442E-03
 134 F= -.23530831E+04 E0= -.23530831E+04  d E =-.399690E-02  mag=     4.0000
       N       E                     dE             d eps       ncg     rms          rms(c)
DAV:   1    -0.233155354613E+04    0.85180E-02   -0.15479E+00  4512   0.102E+00    0.338E-01
RMM:   2    -0.233156412343E+04   -0.10577E-01   -0.11250E-01  6127   0.192E-01    0.239E-01
RMM:   3    -0.233156491066E+04   -0.78724E-03   -0.11628E-02  5764   0.774E-02    0.249E-01
RMM:   4    -0.233156439164E+04    0.51903E-03   -0.14854E-03  4903   0.202E-02    0.119E-01
RMM:   5    -0.233156448085E+04   -0.89211E-04   -0.69310E-04  4516   0.151E-02    0.126E-01
RMM:   6    -0.233156427601E+04    0.20484E-03   -0.36191E-04  3449   0.108E-02    0.361E-02
RMM:   7    -0.233156425908E+04    0.16928E-04   -0.36340E-05  2989   0.553E-03    0.110E-02
RMM:   8    -0.233156425719E+04    0.18930E-05   -0.86369E-06  2940   0.268E-03
 135 F= -.23530862E+04 E0= -.23530862E+04  d E =-.316368E-02  mag=     4.0000
       N       E                     dE             d eps       ncg     rms          rms(c)
DAV:   1    -0.233155959274E+04    0.46663E-02   -0.67349E-01  4528   0.670E-01    0.223E-01
RMM:   2    -0.233156419525E+04   -0.46025E-02   -0.48956E-02  6125   0.127E-01    0.159E-01
RMM:   3    -0.233156453955E+04   -0.34430E-03   -0.50494E-03  5417   0.487E-02    0.168E-01
RMM:   4    -0.233156430266E+04    0.23689E-03   -0.64804E-04  3783   0.135E-02    0.784E-02
RMM:   5    -0.233156433999E+04   -0.37326E-04   -0.30090E-04  3711   0.105E-02    0.829E-02
RMM:   6    -0.233156425069E+04    0.89301E-04   -0.16615E-04  3116   0.825E-03    0.236E-02
RMM:   7    -0.233156424333E+04    0.73591E-05   -0.18007E-05  2958   0.451E-03
 136 F= -.23530868E+04 E0= -.23530868E+04  d E =-.378637E-02  mag=     4.0000
       N       E                     dE             d eps       ncg     rms          rms(c)
DAV:   1    -0.233156076114E+04    0.34895E-02   -0.10548E+00  4512   0.877E-01    0.309E-01
RMM:   2    -0.233156636403E+04   -0.56029E-02   -0.60662E-02  5967   0.160E-01    0.193E-01
RMM:   3    -0.233156677874E+04   -0.41471E-03   -0.63471E-03  5586   0.661E-02    0.208E-01
RMM:   4    -0.233156631870E+04    0.46003E-03   -0.96773E-04  5064   0.188E-02    0.958E-02
RMM:   5    -0.233156636277E+04   -0.44067E-04   -0.44112E-04  4451   0.140E-02    0.101E-01
RMM:   6    -0.233156624724E+04    0.11553E-03   -0.20676E-04  3213   0.915E-03    0.334E-02
RMM:   7    -0.233156623296E+04    0.14278E-04   -0.27226E-05  2960   0.497E-03    0.903E-03
RMM:   8    -0.233156623132E+04    0.16380E-05   -0.75566E-06  2920   0.271E-03
 137 F= -.23530897E+04 E0= -.23530897E+04  d E =-.284753E-02  mag=     4.0000
       N       E                     dE             d eps       ncg     rms          rms(c)
DAV:   1    -0.233156551198E+04    0.72098E-03   -0.12074E-01  4640   0.297E-01    0.104E-01
RMM:   2    -0.233156615913E+04   -0.64715E-03   -0.69917E-03  5984   0.545E-02    0.672E-02
RMM:   3    -0.233156620151E+04   -0.42379E-04   -0.71520E-04  3563   0.211E-02    0.728E-02
RMM:   4    -0.233156614642E+04    0.55087E-04   -0.11214E-04  3033   0.747E-03    0.331E-02
RMM:   5    -0.233156615415E+04   -0.77322E-05   -0.55168E-05  3020   0.560E-03
 138 F= -.23530899E+04 E0= -.23530899E+04  d E =-.306153E-02  mag=     4.0000
       N       E                     dE             d eps       ncg     rms          rms(c)
DAV:   1    -0.233156434552E+04    0.18009E-02   -0.83164E-01  4544   0.780E-01    0.263E-01
RMM:   2    -0.233156805763E+04   -0.37121E-02   -0.40546E-02  5963   0.139E-01    0.169E-01
RMM:   3    -0.233156834172E+04   -0.28408E-03   -0.46012E-03  5466   0.583E-02    0.175E-01
RMM:   4    -0.233156794964E+04    0.39207E-03   -0.68397E-04  4831   0.169E-02    0.777E-02
RMM:   5    -0.233156795199E+04   -0.23425E-05   -0.33394E-04  4350   0.124E-02    0.829E-02
RMM:   6    -0.233156789996E+04    0.52022E-04   -0.15933E-04  3134   0.832E-03    0.394E-02
RMM:   7    -0.233156788215E+04    0.17810E-04   -0.23331E-05  2948   0.455E-03    0.970E-03
RMM:   8    -0.233156788109E+04    0.10688E-05   -0.74297E-06  2923   0.276E-03
 139 F= -.23530923E+04 E0= -.23530923E+04  d E =-.237204E-02  mag=     4.0000
       N       E                     dE             d eps       ncg     rms          rms(c)
DAV:   1    -0.233156698565E+04    0.89651E-03   -0.19276E-01  4544   0.375E-01    0.127E-01
RMM:   2    -0.233156783903E+04   -0.85339E-03   -0.93649E-03  5915   0.667E-02    0.778E-02
RMM:   3    -0.233156789197E+04   -0.52940E-04   -0.98185E-04  4085   0.264E-02    0.779E-02
RMM:   4    -0.233156781686E+04    0.75114E-04   -0.15458E-04  3169   0.880E-03    0.389E-02
RMM:   5    -0.233156780747E+04    0.93897E-05   -0.76515E-05  3224   0.685E-03
 140 F= -.23530925E+04 E0= -.23530925E+04  d E =-.260953E-02  mag=     4.0000
       N       E                     dE             d eps       ncg     rms          rms(c)
DAV:   1    -0.233156513997E+04    0.26769E-02   -0.91970E-01  4512   0.817E-01    0.264E-01
RMM:   2    -0.233156954457E+04   -0.44046E-02   -0.48608E-02  6133   0.150E-01    0.166E-01
RMM:   3    -0.233156982767E+04   -0.28310E-03   -0.50176E-03  5537   0.582E-02    0.162E-01
RMM:   4    -0.233156957721E+04    0.25046E-03   -0.74397E-04  4861   0.166E-02    0.918E-02
RMM:   5    -0.233156956175E+04    0.15461E-04   -0.36481E-04  4352   0.125E-02    0.762E-02
RMM:   6    -0.233156951459E+04    0.47158E-04   -0.15581E-04  3102   0.883E-03    0.413E-02
RMM:   7    -0.233156949376E+04    0.20830E-04   -0.27343E-05  2964   0.461E-03    0.142E-02
RMM:   8    -0.233156949157E+04    0.21943E-05   -0.93033E-06  2917   0.280E-03
 141 F= -.23530947E+04 E0= -.23530947E+04  d E =-.220802E-02  mag=     4.0000
       N       E                     dE             d eps       ncg     rms          rms(c)
DAV:   1    -0.233156828337E+04    0.12104E-02   -0.23332E-01  4544   0.412E-01    0.133E-01
RMM:   2    -0.233156941308E+04   -0.11297E-02   -0.12384E-02  6072   0.748E-02    0.830E-02
RMM:   3    -0.233156948850E+04   -0.75416E-04   -0.12182E-03  4177   0.275E-02    0.814E-02
RMM:   4    -0.233156941707E+04    0.71431E-04   -0.17937E-04  3138   0.914E-03    0.496E-02
RMM:   5    -0.233156941413E+04    0.29335E-05   -0.11092E-04  3150   0.731E-03    0.483E-02
RMM:   6    -0.233156939451E+04    0.19622E-04   -0.51352E-05  2977   0.612E-03    0.185E-02
RMM:   7    -0.233156939107E+04    0.34391E-05   -0.87308E-06  2904   0.314E-03
 142 F= -.23530949E+04 E0= -.23530949E+04  d E =-.237258E-02  mag=     4.0000
       N       E                     dE             d eps       ncg     rms          rms(c)
DAV:   1    -0.233156794175E+04    0.14528E-02   -0.68314E-01  4528   0.702E-01    0.225E-01
RMM:   2    -0.233157102550E+04   -0.30838E-02   -0.34175E-02  6100   0.126E-01    0.138E-01
RMM:   3    -0.233157123993E+04   -0.21443E-03   -0.32773E-03  5223   0.471E-02    0.140E-01
RMM:   4    -0.233157107716E+04    0.16277E-03   -0.50759E-04  4251   0.138E-02    0.949E-02
RMM:   5    -0.233157103722E+04    0.39942E-04   -0.30028E-04  3956   0.112E-02    0.656E-02
RMM:   6    -0.233157099900E+04    0.38215E-04   -0.14180E-04  3104   0.834E-03    0.306E-02
RMM:   7    -0.233157098683E+04    0.12175E-04   -0.22236E-05  2951   0.461E-03    0.106E-02
RMM:   8    -0.233157098578E+04    0.10454E-05   -0.72104E-06  2911   0.248E-03
 143 F= -.23530970E+04 E0= -.23530970E+04  d E =-.211383E-02  mag=     4.0000
       N       E                     dE             d eps       ncg     rms          rms(c)
DAV:   1    -0.233156910809E+04    0.18787E-02   -0.44909E-01  4544   0.569E-01    0.183E-01
RMM:   2    -0.233157113597E+04   -0.20279E-02   -0.22420E-02  6090   0.102E-01    0.114E-01
RMM:   3    -0.233157128146E+04   -0.14549E-03   -0.21726E-03  4948   0.368E-02    0.118E-01
RMM:   4    -0.233157115678E+04    0.12469E-03   -0.33271E-04  3664   0.112E-02    0.761E-02
RMM:   5    -0.233157113820E+04    0.18579E-04   -0.20379E-04  3497   0.955E-03    0.563E-02
RMM:   6    -0.233157110594E+04    0.32253E-04   -0.10109E-04  3044   0.755E-03    0.221E-02
RMM:   7    -0.233157109908E+04    0.68665E-05   -0.14600E-05  2936   0.417E-03
 144 F= -.23530975E+04 E0= -.23530975E+04  d E =-.264967E-02  mag=     4.0000
       N       E                     dE             d eps       ncg     rms          rms(c)
DAV:   1    -0.233157066987E+04    0.43607E-03   -0.57783E-01  4528   0.667E-01    0.225E-01
RMM:   2    -0.233157296377E+04   -0.22939E-02   -0.26293E-02  5906   0.118E-01    0.124E-01
RMM:   3    -0.233157305234E+04   -0.88573E-04   -0.26103E-03  5277   0.477E-02    0.111E-01
RMM:   4    -0.233157300535E+04    0.46999E-04   -0.46697E-04  4476   0.140E-02    0.983E-02
RMM:   5    -0.233157294508E+04    0.60264E-04   -0.25786E-04  4063   0.116E-02    0.578E-02
RMM:   6    -0.233157290886E+04    0.36223E-04   -0.99350E-05  3061   0.754E-03    0.232E-02
RMM:   7    -0.233157290089E+04    0.79729E-05   -0.13834E-05  2943   0.404E-03
 145 F= -.23530999E+04 E0= -.23530999E+04  d E =-.232291E-02  mag=     4.0000
       N       E                     dE             d eps       ncg     rms          rms(c)
DAV:   1    -0.233157239330E+04    0.51556E-03   -0.12593E-01  4592   0.311E-01    0.106E-01
RMM:   2    -0.233157290576E+04   -0.51247E-03   -0.57853E-03  5885   0.557E-02    0.623E-02
RMM:   3    -0.233157294539E+04   -0.39632E-04   -0.64323E-04  4028   0.241E-02    0.675E-02
RMM:   4    -0.233157289592E+04    0.49472E-04   -0.10278E-04  3014   0.765E-03    0.331E-02
RMM:   5    -0.233157288888E+04    0.70452E-05   -0.53057E-05  3144   0.599E-03
 146 F= -.23531001E+04 E0= -.23531001E+04  d E =-.255453E-02  mag=     4.0000
       N       E                     dE             d eps       ncg     rms          rms(c)
DAV:   1    -0.233157208164E+04    0.81428E-03   -0.53035E-01  4512   0.636E-01    0.214E-01
RMM:   2    -0.233157424980E+04   -0.21682E-02   -0.24806E-02  5999   0.110E-01    0.123E-01
RMM:   3    -0.233157447654E+04   -0.22674E-03   -0.29104E-03  5337   0.497E-02    0.153E-01
RMM:   4    -0.233157424520E+04    0.23134E-03   -0.41529E-04  3748   0.133E-02    0.691E-02
RMM:   5    -0.233157427748E+04   -0.32279E-04   -0.26369E-04  4049   0.115E-02    0.749E-02
RMM:   6    -0.233157420111E+04    0.76368E-04   -0.99892E-05  3110   0.763E-03    0.141E-02
RMM:   7    -0.233157420067E+04    0.43622E-06   -0.16840E-05  2965   0.428E-03
 147 F= -.23531018E+04 E0= -.23531018E+04  d E =-.171432E-02  mag=     4.0000
       N       E                     dE             d eps       ncg     rms          rms(c)
DAV:   1    -0.233157332730E+04    0.87381E-03   -0.18884E-01  4544   0.380E-01    0.128E-01
RMM:   2    -0.233157410408E+04   -0.77678E-03   -0.88673E-03  5933   0.658E-02    0.690E-02
RMM:   3    -0.233157415272E+04   -0.48640E-04   -0.95897E-04  4455   0.290E-02    0.672E-02
RMM:   4    -0.233157412055E+04    0.32174E-04   -0.14289E-04  3053   0.828E-03    0.435E-02
RMM:   5    -0.233157410954E+04    0.11005E-04   -0.76286E-05  3194   0.669E-03    0.317E-02
RMM:   6    -0.233157409993E+04    0.96110E-05   -0.27186E-05  2941   0.535E-03
 148 F= -.23531019E+04 E0= -.23531019E+04  d E =-.185432E-02  mag=     4.0000
       N       E                     dE             d eps       ncg     rms          rms(c)
DAV:   1    -0.233157348706E+04    0.62248E-03   -0.50511E-01  4512   0.606E-01    0.196E-01
RMM:   2    -0.233157538766E+04   -0.19006E-02   -0.21834E-02  5804   0.101E-01    0.112E-01
RMM:   3    -0.233157546748E+04   -0.79824E-04   -0.22583E-03  4980   0.412E-02    0.108E-01
RMM:   4    -0.233157540011E+04    0.67373E-04   -0.38590E-04  3848   0.119E-02    0.783E-02
RMM:   5    -0.233157539160E+04    0.85058E-05   -0.20922E-04  3736   0.102E-02    0.611E-02
RMM:   6    -0.233157534214E+04    0.49459E-04   -0.80719E-05  3058   0.680E-03    0.145E-02
RMM:   7    -0.233157533881E+04    0.33321E-05   -0.10684E-05  2934   0.370E-03
 149 F= -.23531035E+04 E0= -.23531035E+04  d E =-.159725E-02  mag=     4.0000
       N       E                     dE             d eps       ncg     rms          rms(c)
DAV:   1    -0.233157434367E+04    0.99847E-03   -0.28568E-01  4528   0.456E-01    0.148E-01
RMM:   2    -0.233157541820E+04   -0.10745E-02   -0.12352E-02  5805   0.765E-02    0.834E-02
RMM:   3    -0.233157545457E+04   -0.36366E-04   -0.12661E-03  4560   0.326E-02    0.742E-02
RMM:   4    -0.233157543353E+04    0.21038E-04   -0.21729E-04  3309   0.947E-03    0.602E-02
RMM:   5    -0.233157540992E+04    0.23615E-04   -0.11123E-04  3326   0.779E-03    0.340E-02
RMM:   6    -0.233157539853E+04    0.11387E-04   -0.35421E-05  2967   0.565E-03    0.162E-02
RMM:   7    -0.233157539495E+04    0.35777E-05   -0.72042E-06  2888   0.265E-03
 150 F= -.23531039E+04 E0= -.23531039E+04  d E =-.192402E-02  mag=     4.0000
