       N       E                     dE             d eps       ncg     rms          rms(c)
DAV:   1     0.129224326272E+05    0.12922E+05   -0.82853E+05  4440   0.144E+03
DAV:   2    -0.101638350169E+04   -0.13939E+05   -0.13327E+05  5064   0.331E+02
DAV:   3    -0.245372809679E+04   -0.14373E+04   -0.14219E+04  5344   0.113E+02
DAV:   4    -0.249853872690E+04   -0.44811E+02   -0.44580E+02  6712   0.296E+01
DAV:   5    -0.249930604383E+04   -0.76732E+00   -0.76587E+00  5832   0.336E+00    0.170E+02
RMM:   6    -0.148209420650E+04    0.10172E+04   -0.18980E+03  4389   0.382E+01    0.718E+01
RMM:   7    -0.165367769281E+04   -0.17158E+03   -0.28707E+02  4960   0.139E+01    0.533E+01
RMM:   8    -0.170576644791E+04   -0.52089E+02   -0.87089E+01  5059   0.835E+00    0.473E+01
RMM:   9    -0.175528887209E+04   -0.49522E+02   -0.59910E+01  4922   0.696E+00    0.321E+01
RMM:  10    -0.189096685281E+04   -0.13568E+03   -0.62543E+01  5243   0.713E+00    0.343E+01
RMM:  11    -0.195030579545E+04   -0.59339E+02   -0.28219E+01  5312   0.458E+00    0.196E+01
RMM:  12    -0.207438906326E+04   -0.12408E+03   -0.64302E+01  4501   0.611E+00    0.145E+01
RMM:  13    -0.213965338009E+04   -0.65264E+02   -0.36371E+01  4721   0.433E+00    0.144E+01
RMM:  14    -0.219871766831E+04   -0.59064E+02   -0.34355E+01  4616   0.454E+00    0.933E+00
RMM:  15    -0.226109884568E+04   -0.62381E+02   -0.52658E+01  4537   0.531E+00    0.647E+00
RMM:  16    -0.228116425727E+04   -0.20065E+02   -0.18379E+01  4657   0.352E+00    0.509E+00
RMM:  17    -0.228791901410E+04   -0.67548E+01   -0.67974E+00  4661   0.165E+00    0.298E+00
RMM:  18    -0.229052829022E+04   -0.26093E+01   -0.19228E+00  4915   0.986E-01    0.201E+00
RMM:  19    -0.229156951008E+04   -0.10412E+01   -0.61001E-01  4826   0.534E-01    0.110E+00
RMM:  20    -0.229192239785E+04   -0.35289E+00   -0.16032E-01  4834   0.307E-01    0.476E-01
RMM:  21    -0.229201341415E+04   -0.91016E-01   -0.38806E-02  4723   0.168E-01    0.298E-01
RMM:  22    -0.229206434099E+04   -0.50927E-01   -0.15660E-02  4477   0.972E-02    0.188E-01
RMM:  23    -0.229209117762E+04   -0.26837E-01   -0.87049E-03  4447   0.819E-02    0.128E-01
RMM:  24    -0.229210215554E+04   -0.10978E-01   -0.31268E-03  4584   0.495E-02    0.852E-02
RMM:  25    -0.229211170049E+04   -0.95449E-02   -0.22730E-03  4399   0.389E-02    0.693E-02
RMM:  26    -0.229211995604E+04   -0.82556E-02   -0.23385E-03  4399   0.378E-02    0.391E-02
RMM:  27    -0.229212369562E+04   -0.37396E-02   -0.13302E-03  4302   0.287E-02    0.308E-02
RMM:  28    -0.229212451260E+04   -0.81698E-03   -0.36161E-04  4155   0.165E-02    0.179E-02
RMM:  29    -0.229212496742E+04   -0.45482E-03   -0.14428E-04  3676   0.935E-03    0.773E-03
RMM:  30    -0.229212517959E+04   -0.21217E-03   -0.55253E-05  3414   0.745E-03    0.458E-03
RMM:  31    -0.229212525584E+04   -0.76255E-04   -0.23518E-05  3071   0.485E-03    0.395E-03
RMM:  32    -0.229212530349E+04   -0.47649E-04   -0.13180E-05  2900   0.385E-03    0.168E-03
RMM:  33    -0.229212532105E+04   -0.17555E-04   -0.75229E-06  2763   0.299E-03    0.111E-03
RMM:  34    -0.229212532347E+04   -0.24255E-05   -0.30468E-06  2381   0.219E-03
   1 F= -.23126986E+04 E0= -.23126986E+04  d E =-.231270E+04  mag=     8.0000
