       N       E                     dE             d eps       ncg     rms          rms(c)
DAV:   1     0.123924128372E+05    0.12392E+05   -0.83890E+05  4640   0.142E+03
DAV:   2    -0.125543604364E+04   -0.13648E+05   -0.13110E+05  4960   0.321E+02
DAV:   3    -0.249636287524E+04   -0.12409E+04   -0.12301E+04  5440   0.105E+02
DAV:   4    -0.252454906626E+04   -0.28186E+02   -0.27996E+02  5600   0.196E+01
DAV:   5    -0.252546932587E+04   -0.92026E+00   -0.91857E+00  5840   0.294E+00    0.170E+02
RMM:   6    -0.149276756996E+04    0.10327E+04   -0.19168E+03  4500   0.377E+01    0.728E+01
RMM:   7    -0.166355090199E+04   -0.17078E+03   -0.28024E+02  5069   0.139E+01    0.559E+01
RMM:   8    -0.170586386263E+04   -0.42313E+02   -0.94182E+01  5326   0.769E+00    0.436E+01
RMM:   9    -0.177683615088E+04   -0.70972E+02   -0.63272E+01  4971   0.750E+00    0.336E+01
RMM:  10    -0.188774642547E+04   -0.11091E+03   -0.55690E+01  5442   0.690E+00    0.304E+01
RMM:  11    -0.197039416162E+04   -0.82648E+02   -0.33243E+01  5269   0.501E+00    0.177E+01
RMM:  12    -0.208340355708E+04   -0.11301E+03   -0.56272E+01  4736   0.562E+00    0.145E+01
RMM:  13    -0.216993112815E+04   -0.86528E+02   -0.48107E+01  4682   0.517E+00    0.111E+01
RMM:  14    -0.226158673303E+04   -0.91656E+02   -0.72186E+01  4579   0.617E+00    0.776E+00
RMM:  15    -0.229497167602E+04   -0.33385E+02   -0.27670E+01  4582   0.432E+00    0.445E+00
RMM:  16    -0.231208047454E+04   -0.17109E+02   -0.16916E+01  4660   0.279E+00    0.318E+00
RMM:  17    -0.231585058638E+04   -0.37701E+01   -0.36766E+00  4763   0.172E+00    0.178E+00
RMM:  18    -0.231806595324E+04   -0.22154E+01   -0.20873E+00  4701   0.692E-01    0.121E+00
RMM:  19    -0.231869093306E+04   -0.62498E+00   -0.69706E-01  4651   0.582E-01    0.784E-01
RMM:  20    -0.231894412106E+04   -0.25319E+00   -0.28400E-01  4714   0.275E-01    0.378E-01
RMM:  21    -0.231898490295E+04   -0.40782E-01   -0.51393E-02  4862   0.183E-01    0.210E-01
RMM:  22    -0.231899859605E+04   -0.13693E-01   -0.10129E-02  4812   0.692E-02    0.139E-01
RMM:  23    -0.231901710902E+04   -0.18513E-01   -0.65590E-03  4505   0.653E-02    0.886E-02
RMM:  24    -0.231902496497E+04   -0.78560E-02   -0.27042E-03  4610   0.405E-02    0.500E-02
RMM:  25    -0.231903037654E+04   -0.54116E-02   -0.15155E-03  4584   0.309E-02    0.360E-02
RMM:  26    -0.231903388188E+04   -0.35053E-02   -0.10372E-03  4195   0.236E-02    0.206E-02
RMM:  27    -0.231903535903E+04   -0.14771E-02   -0.46881E-04  4185   0.184E-02    0.159E-02
RMM:  28    -0.231903589959E+04   -0.54057E-03   -0.18350E-04  4032   0.101E-02    0.763E-03
RMM:  29    -0.231903612003E+04   -0.22044E-03   -0.51838E-05  3559   0.711E-03    0.592E-03
RMM:  30    -0.231903621294E+04   -0.92907E-04   -0.20784E-05  3166   0.400E-03    0.296E-03
RMM:  31    -0.231903626119E+04   -0.48246E-04   -0.92291E-06  2923   0.322E-03    0.150E-03
RMM:  32    -0.231903628375E+04   -0.22568E-04   -0.63403E-06  2832   0.256E-03    0.947E-04
RMM:  33    -0.231903628892E+04   -0.51658E-05   -0.30772E-06  2493   0.213E-03
   1 F= -.23399184E+04 E0= -.23399184E+04  d E =-.646458E-20  mag=     5.0000
       N       E                     dE             d eps       ncg     rms          rms(c)
DAV:   1    -0.231898422572E+04    0.52058E-01   -0.19534E+00  4560   0.427E-01    0.315E-01
RMM:   2    -0.231898511779E+04   -0.89208E-03   -0.10902E-02  4595   0.352E-02    0.382E-01
RMM:   3    -0.231898378269E+04    0.13351E-02   -0.26485E-03  4874   0.185E-02    0.193E-01
RMM:   4    -0.231898347611E+04    0.30658E-03   -0.53098E-04  3391   0.946E-03    0.717E-02
RMM:   5    -0.231898351844E+04   -0.42331E-04   -0.23424E-04  3206   0.632E-03    0.815E-02
RMM:   6    -0.231898345405E+04    0.64390E-04   -0.78593E-05  2809   0.455E-03    0.230E-02
RMM:   7    -0.231898345164E+04    0.24061E-05   -0.13947E-05  2574   0.202E-03
   2 F= -.23398661E+04 E0= -.23398661E+04  d E =-.220358E-19  mag=     5.0000
       N       E                     dE             d eps       ncg     rms          rms(c)
DAV:   1    -0.231907982040E+04   -0.96366E-01   -0.78532E+00  4480   0.842E-01    0.634E-01
RMM:   2    -0.231908280387E+04   -0.29835E-02   -0.39189E-02  4927   0.681E-02    0.779E-01
RMM:   3    -0.231907748626E+04    0.53176E-02   -0.98628E-03  5594   0.383E-02    0.385E-01
RMM:   4    -0.231907635217E+04    0.11341E-02   -0.20150E-03  4296   0.176E-02    0.139E-01
RMM:   5    -0.231907637104E+04   -0.18870E-04   -0.68864E-04  3539   0.124E-02    0.112E-01
RMM:   6    -0.231907631369E+04    0.57342E-04   -0.27444E-04  3188   0.708E-03    0.702E-02
RMM:   7    -0.231907626894E+04    0.44751E-04   -0.49027E-05  2907   0.427E-03    0.197E-02
RMM:   8    -0.231907627051E+04   -0.15710E-05   -0.16223E-05  2831   0.253E-03
   3 F= -.23399579E+04 E0= -.23399579E+04  d E =-.362233E-20  mag=     5.0000
       N       E                     dE             d eps       ncg     rms          rms(c)
DAV:   1    -0.231904329392E+04    0.32975E-01   -0.37413E+00  4480   0.581E-01    0.383E-01
RMM:   2    -0.231904450556E+04   -0.12116E-02   -0.15981E-02  4511   0.420E-02    0.413E-01
RMM:   3    -0.231904297666E+04    0.15289E-02   -0.36182E-03  5140   0.221E-02    0.257E-01
RMM:   4    -0.231904240260E+04    0.57406E-03   -0.85180E-04  3687   0.117E-02    0.833E-02
RMM:   5    -0.231904245237E+04   -0.49765E-04   -0.30618E-04  3225   0.744E-03    0.877E-02
RMM:   6    -0.231904238647E+04    0.65901E-04   -0.10469E-04  2886   0.486E-03    0.312E-02
RMM:   7    -0.231904238081E+04    0.56525E-05   -0.16101E-05  2645   0.247E-03
   4 F= -.23399243E+04 E0= -.23399243E+04  d E =-.158422E-18  mag=     5.0000
       N       E                     dE             d eps       ncg     rms          rms(c)
DAV:   1    -0.231902962188E+04    0.12765E-01   -0.71688E+00  4480   0.738E-01    0.451E-01
RMM:   2    -0.231903017719E+04   -0.55531E-03   -0.19927E-02  4127   0.433E-02    0.222E-01
RMM:   3    -0.231903003115E+04    0.14604E-03   -0.29721E-03  4196   0.264E-02    0.251E-01
RMM:   4    -0.231902961906E+04    0.41209E-03   -0.14791E-03  4161   0.146E-02    0.155E-01
RMM:   5    -0.231902943937E+04    0.17969E-03   -0.33066E-04  3226   0.809E-03    0.650E-02
RMM:   6    -0.231902943956E+04   -0.19076E-06   -0.10821E-04  2872   0.506E-03    0.496E-02
RMM:   7    -0.231902942305E+04    0.16514E-04   -0.29855E-05  2730   0.329E-03    0.138E-02
RMM:   8    -0.231902942241E+04    0.63820E-06   -0.82072E-06  2672   0.182E-03
   5 F= -.23399117E+04 E0= -.23399117E+04  d E =-.331432E-19  mag=     5.0000
       N       E                     dE             d eps       ncg     rms          rms(c)
DAV:   1    -0.231899147653E+04    0.37947E-01   -0.37583E+00  4480   0.592E-01    0.402E-01
RMM:   2    -0.231899272350E+04   -0.12470E-02   -0.17398E-02  4902   0.460E-02    0.359E-01
RMM:   3    -0.231899208465E+04    0.63886E-03   -0.45894E-03  4920   0.285E-02    0.331E-01
RMM:   4    -0.231899090525E+04    0.11794E-02   -0.12692E-03  4059   0.152E-02    0.138E-01
RMM:   5    -0.231899094005E+04   -0.34799E-04   -0.63882E-04  3476   0.105E-02    0.156E-01
RMM:   6    -0.231899076390E+04    0.17615E-03   -0.19475E-04  3067   0.659E-03    0.258E-02
RMM:   7    -0.231899076240E+04    0.15003E-05   -0.31629E-05  2897   0.312E-03
   6 F= -.23398742E+04 E0= -.23398742E+04  d E =-.651020E-22  mag=     5.0000
       N       E                     dE             d eps       ncg     rms          rms(c)
DAV:   1    -0.231906514146E+04   -0.74378E-01   -0.77180E+00  4480   0.944E-01    0.688E-01
RMM:   2    -0.231907010986E+04   -0.49684E-02   -0.56049E-02  5237   0.795E-02    0.725E-01
RMM:   3    -0.231906601203E+04    0.40978E-02   -0.13808E-02  5244   0.507E-02    0.522E-01
RMM:   4    -0.231906331599E+04    0.26960E-02   -0.32578E-03  4737   0.232E-02    0.262E-01
RMM:   5    -0.231906353530E+04   -0.21931E-03   -0.24364E-03  4605   0.183E-02    0.331E-01
RMM:   6    -0.231906267008E+04    0.86522E-03   -0.71332E-04  3426   0.112E-02    0.494E-02
RMM:   7    -0.231906264189E+04    0.28189E-04   -0.12842E-04  3048   0.541E-03    0.275E-02
RMM:   8    -0.231906263344E+04    0.84479E-05   -0.27672E-05  2975   0.391E-03
   7 F= -.23399434E+04 E0= -.23399434E+04  d E =-.315346E-16  mag=     5.0000
       N       E                     dE             d eps       ncg     rms          rms(c)
DAV:   1    -0.231907558971E+04   -0.12948E-01   -0.40210E+00  4480   0.817E-01    0.419E-01
RMM:   2    -0.231907593193E+04   -0.34222E-03   -0.21768E-02  4285   0.560E-02    0.347E-01
RMM:   3    -0.231907600175E+04   -0.69821E-04   -0.51106E-03  4953   0.292E-02    0.415E-01
RMM:   4    -0.231907414629E+04    0.18555E-02   -0.24794E-03  4032   0.195E-02    0.134E-01
RMM:   5    -0.231907411218E+04    0.34116E-04   -0.77119E-04  3462   0.149E-02    0.137E-01
RMM:   6    -0.231907397571E+04    0.13647E-03   -0.18180E-04  3015   0.616E-03    0.220E-02
RMM:   7    -0.231907396833E+04    0.73760E-05   -0.35268E-05  2901   0.323E-03
   8 F= -.23399557E+04 E0= -.23399557E+04  d E =-.275897E-17  mag=     5.0000
       N       E                     dE             d eps       ncg     rms          rms(c)
DAV:   1    -0.231897729104E+04    0.96685E-01   -0.84026E+00  4480   0.116E+00    0.630E-01
RMM:   2    -0.231897188653E+04    0.54045E-02   -0.36284E-02  4366   0.774E-02    0.485E-01
RMM:   3    -0.231897161007E+04    0.27646E-03   -0.10410E-02  5020   0.490E-02    0.581E-01
RMM:   4    -0.231896857765E+04    0.30324E-02   -0.59795E-03  4307   0.285E-02    0.148E-01
RMM:   5    -0.231896862618E+04   -0.48523E-04   -0.11690E-03  3658   0.209E-02    0.115E-01
RMM:   6    -0.231896852006E+04    0.10612E-03   -0.34139E-04  3535   0.793E-03    0.645E-02
RMM:   7    -0.231896847224E+04    0.47815E-04   -0.55836E-05  2914   0.445E-03    0.238E-02
RMM:   8    -0.231896846975E+04    0.24968E-05   -0.41187E-05  3079   0.300E-03
   9 F= -.23398509E+04 E0= -.23398509E+04  d E =-.132473E-20  mag=     5.0000
       N       E                     dE             d eps       ncg     rms          rms(c)
DAV:   1    -0.231896739124E+04    0.10810E-02   -0.42308E+00  4480   0.838E-01    0.425E-01
RMM:   2    -0.231896521338E+04    0.21779E-02   -0.15198E-02  3869   0.495E-02    0.283E-01
RMM:   3    -0.231896594181E+04   -0.72843E-03   -0.55108E-03  5225   0.307E-02    0.427E-01
RMM:   4    -0.231896383054E+04    0.21113E-02   -0.30155E-03  4422   0.216E-02    0.684E-02
RMM:   5    -0.231896387507E+04   -0.44524E-04   -0.44024E-04  3232   0.117E-02    0.940E-02
RMM:   6    -0.231896379963E+04    0.75432E-04   -0.10253E-04  2745   0.452E-03    0.246E-02
RMM:   7    -0.231896379181E+04    0.78293E-05   -0.29495E-05  2754   0.248E-03
  10 F= -.23398461E+04 E0= -.23398461E+04  d E =-.138953E-19  mag=     5.0000
       N       E                     dE             d eps       ncg     rms          rms(c)
DAV:   1    -0.231907246412E+04   -0.10866E+00   -0.86482E+00  4400   0.118E+00    0.636E-01
RMM:   2    -0.231906775004E+04    0.47141E-02   -0.28055E-02  3917   0.659E-02    0.385E-01
RMM:   3    -0.231906972830E+04   -0.19783E-02   -0.13087E-02  5335   0.423E-02    0.658E-01
RMM:   4    -0.231906519531E+04    0.45330E-02   -0.59544E-03  4939   0.287E-02    0.119E-01
RMM:   5    -0.231906514474E+04    0.50565E-04   -0.66542E-04  3279   0.965E-03    0.699E-02
RMM:   6    -0.231906510047E+04    0.44268E-04   -0.11324E-04  2870   0.504E-03    0.434E-02
RMM:   7    -0.231906507625E+04    0.24223E-04   -0.60539E-05  2841   0.371E-03    0.224E-02
RMM:   8    -0.231906507359E+04    0.26650E-05   -0.20027E-05  2835   0.294E-03
  11 F= -.23399469E+04 E0= -.23399469E+04  d E =-.433826E-18  mag=     5.0000
       N       E                     dE             d eps       ncg     rms          rms(c)
DAV:   1    -0.231902347032E+04    0.41606E-01   -0.41607E+00  4320   0.791E-01    0.416E-01
RMM:   2    -0.231902161595E+04    0.18544E-02   -0.14098E-02  3950   0.467E-02    0.264E-01
RMM:   3    -0.231902174339E+04   -0.12744E-03   -0.42557E-03  4726   0.278E-02    0.408E-01
RMM:   4    -0.231902048865E+04    0.12547E-02   -0.26474E-03  4143   0.182E-02    0.110E-01
RMM:   5    -0.231902047024E+04    0.18418E-04   -0.40509E-04  3242   0.107E-02    0.774E-02
RMM:   6    -0.231902040348E+04    0.66759E-04   -0.10012E-04  2823   0.507E-03    0.298E-02
RMM:   7    -0.231902039161E+04    0.11867E-04   -0.18542E-05  2589   0.248E-03    0.162E-02
RMM:   8    -0.231902038940E+04    0.22135E-05   -0.16416E-05  2737   0.204E-03
  12 F= -.23399019E+04 E0= -.23399019E+04  d E =-.178713E-17  mag=     5.0000
       N       E                     dE             d eps       ncg     rms          rms(c)
DAV:   1    -0.231904271698E+04   -0.22325E-01   -0.79701E+00  4480   0.112E+00    0.615E-01
RMM:   2    -0.231903972599E+04    0.29910E-02   -0.33901E-02  4520   0.699E-02    0.518E-01
RMM:   3    -0.231903928734E+04    0.43865E-03   -0.88235E-03  4864   0.406E-02    0.577E-01
RMM:   4    -0.231903657219E+04    0.27152E-02   -0.42532E-03  4320   0.232E-02    0.190E-01
RMM:   5    -0.231903642616E+04    0.14603E-03   -0.12254E-03  3877   0.165E-02    0.140E-01
RMM:   6    -0.231903627052E+04    0.15564E-03   -0.39661E-04  3439   0.873E-03    0.650E-02
RMM:   7    -0.231903622883E+04    0.41681E-04   -0.49199E-05  2885   0.412E-03    0.211E-02
RMM:   8    -0.231903622782E+04    0.10150E-05   -0.18812E-05  2817   0.257E-03
  13 F= -.23399189E+04 E0= -.23399189E+04  d E =-.350959E-20  mag=     5.0000
       N       E                     dE             d eps       ncg     rms          rms(c)
DAV:   1    -0.231904288569E+04   -0.66569E-02   -0.21899E+00  4480   0.558E-01    0.298E-01
RMM:   2    -0.231904278909E+04    0.96597E-04   -0.80899E-03  3962   0.347E-02    0.218E-01
RMM:   3    -0.231904303483E+04   -0.24573E-03   -0.19497E-03  4116   0.188E-02    0.315E-01
RMM:   4    -0.231904226169E+04    0.77313E-03   -0.13794E-03  3700   0.137E-02    0.753E-02
RMM:   5    -0.231904222972E+04    0.31977E-04   -0.20320E-04  3081   0.840E-03    0.507E-02
RMM:   6    -0.231904220847E+04    0.21249E-04   -0.41999E-05  2697   0.355E-03    0.230E-02
RMM:   7    -0.231904220301E+04    0.54616E-05   -0.12120E-05  2505   0.219E-03
  14 F= -.23399239E+04 E0= -.23399239E+04  d E =-.948070E-19  mag=     5.0000
       N       E                     dE             d eps       ncg     rms          rms(c)
DAV:   1    -0.231902527941E+04    0.16929E-01   -0.11819E+00  4640   0.385E-01    0.370E-01
RMM:   2    -0.231902436599E+04    0.91342E-03   -0.83447E-03  3847   0.289E-02    0.217E-01
RMM:   3    -0.231902445069E+04   -0.84703E-04   -0.17028E-03  3966   0.210E-02    0.244E-01
RMM:   4    -0.231902420362E+04    0.24708E-03   -0.11010E-03  3479   0.127E-02    0.157E-01
RMM:   5    -0.231902408307E+04    0.12055E-03   -0.24414E-04  3035   0.765E-03    0.505E-02
RMM:   6    -0.231902408998E+04   -0.69154E-05   -0.10128E-04  2767   0.491E-03    0.526E-02
RMM:   7    -0.231902405693E+04    0.33053E-04   -0.22613E-05  2535   0.299E-03    0.150E-02
RMM:   8    -0.231902405512E+04    0.18096E-05   -0.68502E-06  2337   0.155E-03
  15 F= -.23399065E+04 E0= -.23399065E+04  d E =-.103768E-18  mag=     5.0000
       N       E                     dE             d eps       ncg     rms          rms(c)
DAV:   1    -0.231904105071E+04   -0.16994E-01   -0.61750E-01  4800   0.280E-01    0.396E-01
RMM:   2    -0.231903862733E+04    0.24234E-02   -0.10443E-02  4104   0.319E-02    0.233E-01
RMM:   3    -0.231903863276E+04   -0.54341E-05   -0.22628E-03  4154   0.236E-02    0.272E-01
RMM:   4    -0.231903817653E+04    0.45623E-03   -0.11551E-03  3562   0.133E-02    0.155E-01
RMM:   5    -0.231903804992E+04    0.12661E-03   -0.27846E-04  3041   0.769E-03    0.617E-02
RMM:   6    -0.231903806872E+04   -0.18798E-04   -0.15423E-04  2887   0.561E-03    0.694E-02
RMM:   7    -0.231903801192E+04    0.56800E-04   -0.40349E-05  2589   0.368E-03    0.173E-02
RMM:   8    -0.231903800902E+04    0.29021E-05   -0.76435E-06  2268   0.157E-03
  16 F= -.23399199E+04 E0= -.23399199E+04  d E =-.458967E-19  mag=     5.0000
       N       E                     dE             d eps       ncg     rms          rms(c)
DAV:   1    -0.231902399108E+04    0.14021E-01   -0.12194E+00  4960   0.381E-01    0.525E-01
RMM:   2    -0.231901989282E+04    0.40983E-02   -0.18602E-02  4163   0.450E-02    0.306E-01
RMM:   3    -0.231901997790E+04   -0.85085E-04   -0.39378E-03  4503   0.340E-02    0.344E-01
RMM:   4    -0.231901920106E+04    0.77684E-03   -0.19536E-03  3923   0.180E-02    0.196E-01
RMM:   5    -0.231901896764E+04    0.23341E-03   -0.45941E-04  3240   0.983E-03    0.628E-02
RMM:   6    -0.231901901312E+04   -0.45477E-04   -0.19800E-04  3026   0.621E-03    0.812E-02
RMM:   7    -0.231901893764E+04    0.75478E-04   -0.66468E-05  2671   0.443E-03    0.252E-02
RMM:   8    -0.231901893195E+04    0.56976E-05   -0.11681E-05  2408   0.191E-03
  17 F= -.23399012E+04 E0= -.23399012E+04  d E =-.173126E-18  mag=     5.0000
       N       E                     dE             d eps       ncg     rms          rms(c)
DAV:   1    -0.231905117211E+04   -0.32234E-01   -0.61444E-01  5040   0.296E-01    0.386E-01
RMM:   2    -0.231904906734E+04    0.21048E-02   -0.10015E-02  3738   0.301E-02    0.210E-01
RMM:   3    -0.231904885048E+04    0.21686E-03   -0.14934E-03  3855   0.195E-02    0.178E-01
RMM:   4    -0.231904886629E+04   -0.15802E-04   -0.11246E-03  3739   0.138E-02    0.173E-01
RMM:   5    -0.231904853610E+04    0.33019E-03   -0.30587E-04  3328   0.844E-03    0.535E-02
RMM:   6    -0.231904854477E+04   -0.86747E-05   -0.11042E-04  2705   0.474E-03    0.688E-02
RMM:   7    -0.231904850916E+04    0.35616E-04   -0.24716E-05  2482   0.286E-03    0.109E-02
RMM:   8    -0.231904850816E+04    0.99401E-06   -0.81637E-06  2286   0.144E-03
  18 F= -.23399304E+04 E0= -.23399304E+04  d E =-.372887E-18  mag=     5.0000
       N       E                     dE             d eps       ncg     rms          rms(c)
DAV:   1    -0.231901742076E+04    0.31088E-01   -0.11838E+00  4720   0.365E-01    0.402E-01
RMM:   2    -0.231901643022E+04    0.99055E-03   -0.74732E-03  3632   0.326E-02    0.254E-01
RMM:   3    -0.231901758200E+04   -0.11518E-02   -0.34294E-03  4135   0.260E-02    0.464E-01
RMM:   4    -0.231901597682E+04    0.16052E-02   -0.18367E-03  3800   0.166E-02    0.649E-02
RMM:   5    -0.231901602468E+04   -0.47865E-04   -0.33421E-04  3110   0.919E-03    0.856E-02
RMM:   6    -0.231901595507E+04    0.69618E-04   -0.12437E-04  2884   0.523E-03    0.324E-02
RMM:   7    -0.231901594350E+04    0.11569E-04   -0.13545E-05  2594   0.254E-03    0.979E-03
RMM:   8    -0.231901594317E+04    0.33207E-06   -0.57790E-06  2512   0.166E-03
  19 F= -.23398982E+04 E0= -.23398982E+04  d E =-.202651E-19  mag=     5.0000
       N       E                     dE             d eps       ncg     rms          rms(c)
DAV:   1    -0.231898332446E+04    0.32619E-01   -0.59177E-01  4800   0.314E-01    0.316E-01
RMM:   2    -0.231898272769E+04    0.59677E-03   -0.60028E-03  3672   0.300E-02    0.219E-01
RMM:   3    -0.231898304126E+04   -0.31356E-03   -0.19298E-03  4130   0.182E-02    0.316E-01
RMM:   4    -0.231898232199E+04    0.71927E-03   -0.10556E-03  3394   0.125E-02    0.925E-02
RMM:   5    -0.231898231124E+04    0.10752E-04   -0.22499E-04  2982   0.781E-03    0.692E-02
RMM:   6    -0.231898225958E+04    0.51656E-04   -0.77032E-05  2671   0.453E-03    0.266E-02
RMM:   7    -0.231898225070E+04    0.88822E-05   -0.88254E-06  2327   0.197E-03
  20 F= -.23398645E+04 E0= -.23398645E+04  d E =-.829000E-19  mag=     5.0000
       N       E                     dE             d eps       ncg     rms          rms(c)
DAV:   1    -0.231907554647E+04   -0.93287E-01   -0.12202E+00  4720   0.425E-01    0.553E-01
RMM:   2    -0.231907095683E+04    0.45896E-02   -0.21337E-02  4036   0.521E-02    0.327E-01
RMM:   3    -0.231907093618E+04    0.20655E-04   -0.45576E-03  4361   0.345E-02    0.380E-01
RMM:   4    -0.231907015441E+04    0.78176E-03   -0.26167E-03  4027   0.192E-02    0.237E-01
RMM:   5    -0.231906982137E+04    0.33304E-03   -0.59697E-04  3305   0.118E-02    0.850E-02
RMM:   6    -0.231906985447E+04   -0.33096E-04   -0.31614E-04  3174   0.786E-03    0.965E-02
RMM:   7    -0.231906974213E+04    0.11234E-03   -0.74958E-05  2772   0.493E-03    0.256E-02
RMM:   8    -0.231906973615E+04    0.59797E-05   -0.15894E-05  2561   0.220E-03
  21 F= -.23399517E+04 E0= -.23399517E+04  d E =-.102193E-18  mag=     5.0000
       N       E                     dE             d eps       ncg     rms          rms(c)
DAV:   1    -0.231903313551E+04    0.36607E-01   -0.60213E-01  4320   0.284E-01    0.323E-01
RMM:   2    -0.231903183253E+04    0.13030E-02   -0.63331E-03  3661   0.275E-02    0.186E-01
RMM:   3    -0.231903182620E+04    0.63270E-05   -0.12368E-03  3814   0.167E-02    0.195E-01
RMM:   4    -0.231903167850E+04    0.14770E-03   -0.81026E-04  3376   0.113E-02    0.145E-01
RMM:   5    -0.231903155355E+04    0.12495E-03   -0.20071E-04  2930   0.700E-03    0.424E-02
RMM:   6    -0.231903156815E+04   -0.14603E-04   -0.86448E-05  2750   0.446E-03    0.516E-02
RMM:   7    -0.231903153606E+04    0.32087E-04   -0.22523E-05  2457   0.293E-03    0.147E-02
RMM:   8    -0.231903153413E+04    0.19318E-05   -0.49860E-06  2192   0.141E-03
  22 F= -.23399137E+04 E0= -.23399137E+04  d E =-.102172E-18  mag=     5.0000
       N       E                     dE             d eps       ncg     rms          rms(c)
DAV:   1    -0.231903653548E+04   -0.49994E-02   -0.11621E+00  4240   0.399E-01    0.272E-01
RMM:   2    -0.231903676634E+04   -0.23086E-03   -0.29343E-03  3335   0.207E-02    0.164E-01
RMM:   3    -0.231903686514E+04   -0.98795E-04   -0.69599E-04  3377   0.118E-02    0.294E-02
RMM:   4    -0.231903686586E+04   -0.72109E-06   -0.82791E-05  2676   0.529E-03
  23 F= -.23399189E+04 E0= -.23399189E+04  d E =-.768717E-19  mag=     5.0000
       N       E                     dE             d eps       ncg     rms          rms(c)
DAV:   1    -0.231905228620E+04   -0.15421E-01   -0.58049E-01  4320   0.288E-01    0.204E-01
RMM:   2    -0.231905239891E+04   -0.11271E-03   -0.22497E-03  3357   0.176E-02    0.132E-01
RMM:   3    -0.231905271067E+04   -0.31175E-03   -0.88343E-04  3540   0.127E-02    0.220E-01
RMM:   4    -0.231905238050E+04    0.33017E-03   -0.42585E-04  3074   0.864E-03    0.399E-02
RMM:   5    -0.231905237800E+04    0.24965E-05   -0.68646E-05  2690   0.470E-03
  24 F= -.23399346E+04 E0= -.23399346E+04  d E =-.642490E-19  mag=     5.0000
       N       E                     dE             d eps       ncg     rms          rms(c)
DAV:   1    -0.231901638232E+04    0.35998E-01   -0.11488E+00  4320   0.393E-01    0.300E-01
RMM:   2    -0.231901669829E+04   -0.31597E-03   -0.56876E-03  3660   0.260E-02    0.218E-01
RMM:   3    -0.231901717861E+04   -0.48032E-03   -0.20056E-03  4163   0.178E-02    0.328E-01
RMM:   4    -0.231901647857E+04    0.70004E-03   -0.84435E-04  3324   0.118E-02    0.668E-02
RMM:   5    -0.231901648269E+04   -0.41237E-05   -0.19042E-04  2985   0.742E-03    0.594E-02
RMM:   6    -0.231901644269E+04    0.39996E-04   -0.51429E-05  2660   0.391E-03    0.158E-02
RMM:   7    -0.231901644110E+04    0.15949E-05   -0.61256E-06  2364   0.185E-03
  25 F= -.23398984E+04 E0= -.23398984E+04  d E =-.123543E-18  mag=     5.0000
       N       E                     dE             d eps       ncg     rms          rms(c)
DAV:   1    -0.231901932080E+04   -0.28781E-02   -0.60993E-01  4320   0.298E-01    0.270E-01
RMM:   2    -0.231901906460E+04    0.25620E-03   -0.41602E-03  3797   0.234E-02    0.185E-01
RMM:   3    -0.231901935317E+04   -0.28857E-03   -0.13862E-03  3815   0.162E-02    0.263E-01
RMM:   4    -0.231901890729E+04    0.44588E-03   -0.65787E-04  3235   0.999E-03    0.854E-02
RMM:   5    -0.231901890491E+04    0.23762E-05   -0.16081E-04  2978   0.652E-03    0.572E-02
RMM:   6    -0.231901887733E+04    0.27586E-04   -0.65613E-05  2671   0.435E-03    0.303E-02
RMM:   7    -0.231901886765E+04    0.96738E-05   -0.75660E-06  2465   0.209E-03
  26 F= -.23399007E+04 E0= -.23399007E+04  d E =-.710246E-19  mag=     5.0000
       N       E                     dE             d eps       ncg     rms          rms(c)
DAV:   1    -0.231904897051E+04   -0.30093E-01   -0.12551E+00  4720   0.358E-01    0.422E-01
RMM:   2    -0.231904781895E+04    0.11516E-02   -0.87134E-03  4060   0.303E-02    0.254E-01
RMM:   3    -0.231904827261E+04   -0.45366E-03   -0.25218E-03  4083   0.249E-02    0.325E-01
RMM:   4    -0.231904768676E+04    0.58585E-03   -0.15722E-03  3669   0.146E-02    0.167E-01
RMM:   5    -0.231904753036E+04    0.15640E-03   -0.29623E-04  3174   0.897E-03    0.526E-02
RMM:   6    -0.231904754013E+04   -0.97709E-05   -0.12080E-04  2859   0.544E-03    0.587E-02
RMM:   7    -0.231904750044E+04    0.39688E-04   -0.25178E-05  2616   0.322E-03    0.148E-02
RMM:   8    -0.231904749843E+04    0.20110E-05   -0.87553E-06  2458   0.165E-03
  27 F= -.23399298E+04 E0= -.23399298E+04  d E =-.151390E-18  mag=     5.0000
       N       E                     dE             d eps       ncg     rms          rms(c)
DAV:   1    -0.231906566964E+04   -0.18169E-01   -0.61990E-01  4720   0.252E-01    0.279E-01
RMM:   2    -0.231906526498E+04    0.40466E-03   -0.38870E-03  3575   0.197E-02    0.165E-01
RMM:   3    -0.231906543086E+04   -0.16587E-03   -0.90572E-04  3845   0.133E-02    0.174E-01
RMM:   4    -0.231906520400E+04    0.22686E-03   -0.57295E-04  3404   0.106E-02    0.897E-02
RMM:   5    -0.231906514095E+04    0.63044E-04   -0.10962E-04  3012   0.561E-03    0.377E-02
RMM:   6    -0.231906514036E+04    0.59561E-06   -0.44170E-05  2493   0.329E-03
  28 F= -.23399476E+04 E0= -.23399476E+04  d E =-.124580E-18  mag=     5.0000
       N       E                     dE             d eps       ncg     rms          rms(c)
DAV:   1    -0.231898887911E+04    0.76262E-01   -0.13483E+00  4800   0.398E-01    0.655E-01
RMM:   2    -0.231898200363E+04    0.68755E-02   -0.24929E-02  4413   0.484E-02    0.364E-01
RMM:   3    -0.231898180381E+04    0.19983E-03   -0.48533E-03  4463   0.360E-02    0.364E-01
RMM:   4    -0.231898123158E+04    0.57223E-03   -0.28093E-03  4227   0.210E-02    0.280E-01
RMM:   5    -0.231898069049E+04    0.54109E-03   -0.71814E-04  3381   0.115E-02    0.752E-02
RMM:   6    -0.231898076067E+04   -0.70189E-04   -0.28781E-04  3134   0.731E-03    0.991E-02
RMM:   7    -0.231898064419E+04    0.11649E-03   -0.94738E-05  2742   0.515E-03    0.278E-02
RMM:   8    -0.231898063642E+04    0.77685E-05   -0.17611E-05  2503   0.217E-03
  29 F= -.23398623E+04 E0= -.23398623E+04  d E =-.495437E-19  mag=     5.0000
       N       E                     dE             d eps       ncg     rms          rms(c)
DAV:   1    -0.231902866720E+04   -0.48023E-01   -0.63336E-01  4480   0.235E-01    0.345E-01
RMM:   2    -0.231902769517E+04    0.97203E-03   -0.62604E-03  4224   0.256E-02    0.228E-01
RMM:   3    -0.231902801406E+04   -0.31889E-03   -0.19954E-03  4111   0.189E-02    0.305E-01
RMM:   4    -0.231902740330E+04    0.61076E-03   -0.94927E-04  3471   0.115E-02    0.119E-01
RMM:   5    -0.231902739355E+04    0.97508E-05   -0.25032E-04  3118   0.738E-03    0.774E-02
RMM:   6    -0.231902734700E+04    0.46551E-04   -0.12661E-04  2866   0.555E-03    0.452E-02
RMM:   7    -0.231902732359E+04    0.23410E-04   -0.16757E-05  2589   0.271E-03    0.118E-02
RMM:   8    -0.231902732213E+04    0.14569E-05   -0.45488E-06  2280   0.140E-03
  30 F= -.23399094E+04 E0= -.23399094E+04  d E =-.853039E-18  mag=     5.0000
       N       E                     dE             d eps       ncg     rms          rms(c)
DAV:   1    -0.231904072676E+04   -0.13403E-01   -0.12442E+00  4560   0.342E-01    0.435E-01
RMM:   2    -0.231904001960E+04    0.70716E-03   -0.76504E-03  3722   0.310E-02    0.283E-01
RMM:   3    -0.231904166582E+04   -0.16462E-02   -0.42456E-03  4652   0.252E-02    0.530E-01
RMM:   4    -0.231903946148E+04    0.22043E-02   -0.21739E-03  4005   0.181E-02    0.507E-02
RMM:   5    -0.231903953380E+04   -0.72329E-04   -0.36194E-04  3122   0.884E-03    0.948E-02
RMM:   6    -0.231903944466E+04    0.89147E-04   -0.94623E-05  2915   0.490E-03    0.318E-02
RMM:   7    -0.231903943753E+04    0.71227E-05   -0.23453E-05  2672   0.254E-03
  31 F= -.23399215E+04 E0= -.23399215E+04  d E =-.984238E-20  mag=     5.0000
