       N       E                     dE             d eps       ncg     rms          rms(c)
DAV:   1     0.126500337410E+05    0.12650E+05   -0.82764E+05  4440   0.144E+03
DAV:   2    -0.107404983969E+04   -0.13724E+05   -0.13150E+05  5280   0.329E+02
DAV:   3    -0.246766649062E+04   -0.13936E+04   -0.13808E+04  5328   0.110E+02
DAV:   4    -0.251258222522E+04   -0.44916E+02   -0.44687E+02  6720   0.296E+01
DAV:   5    -0.251339844769E+04   -0.81622E+00   -0.81479E+00  5512   0.308E+00    0.171E+02
RMM:   6    -0.148709035174E+04    0.10263E+04   -0.19552E+03  4385   0.391E+01    0.758E+01
RMM:   7    -0.165719452721E+04   -0.17010E+03   -0.31052E+02  5128   0.148E+01    0.623E+01
RMM:   8    -0.167927393538E+04   -0.22079E+02   -0.88795E+01  5148   0.878E+00    0.410E+01
RMM:   9    -0.178110675084E+04   -0.10183E+03   -0.48945E+01  4543   0.732E+00    0.298E+01
RMM:  10    -0.192175503699E+04   -0.14065E+03   -0.52800E+01  4912   0.719E+00    0.293E+01
RMM:  11    -0.197518583563E+04   -0.53431E+02   -0.26198E+01  5284   0.431E+00    0.194E+01
RMM:  12    -0.206615254935E+04   -0.90967E+02   -0.39781E+01  4799   0.498E+00    0.139E+01
RMM:  13    -0.215763708018E+04   -0.91485E+02   -0.51673E+01  4558   0.545E+00    0.113E+01
RMM:  14    -0.225857974752E+04   -0.10094E+03   -0.89337E+01  4491   0.658E+00    0.810E+00
RMM:  15    -0.228872855073E+04   -0.30149E+02   -0.28728E+01  4706   0.429E+00    0.455E+00
RMM:  16    -0.229790247743E+04   -0.91739E+01   -0.10569E+01  4816   0.228E+00    0.590E+00
RMM:  17    -0.229850905397E+04   -0.60658E+00   -0.11053E+00  5286   0.928E-01    0.546E+00
RMM:  18    -0.230075115242E+04   -0.22421E+01   -0.12421E+00  4445   0.742E-01    0.343E+00
RMM:  19    -0.230283391109E+04   -0.20828E+01   -0.92635E-01  4409   0.664E-01    0.148E+00
RMM:  20    -0.230420717573E+04   -0.13733E+01   -0.55401E-01  4670   0.459E-01    0.107E+00
RMM:  21    -0.230439696671E+04   -0.18979E+00   -0.15866E-01  5078   0.268E-01    0.769E-01
RMM:  22    -0.230442700394E+04   -0.30037E-01   -0.25168E-02  5380   0.971E-02    0.825E-01
RMM:  23    -0.230442454153E+04    0.24624E-02   -0.19885E-03  5431   0.294E-02    0.803E-01
RMM:  24    -0.230443217968E+04   -0.76381E-02   -0.45252E-03  4450   0.453E-02    0.708E-01
RMM:  25    -0.230444559143E+04   -0.13412E-01   -0.20469E-02  4560   0.780E-02    0.722E-01
RMM:  26    -0.230445044828E+04   -0.48568E-02   -0.11169E-02  4866   0.661E-02    0.817E-01
RMM:  27    -0.230445282497E+04   -0.23767E-02   -0.15717E-03  4784   0.269E-02    0.766E-01
RMM:  28    -0.230447316586E+04   -0.20341E-01   -0.91123E-03  4529   0.547E-02    0.462E-01
RMM:  29    -0.230450345162E+04   -0.30286E-01   -0.38654E-02  4435   0.993E-02    0.482E-01
RMM:  30    -0.230451667250E+04   -0.13221E-01   -0.69483E-03  4650   0.548E-02    0.529E-01
RMM:  31    -0.230452139502E+04   -0.47225E-02   -0.22030E-03  4782   0.237E-02    0.532E-01
RMM:  32    -0.230451577608E+04    0.56189E-02   -0.18665E-03  4463   0.202E-02    0.515E-01
RMM:  33    -0.230450866466E+04    0.71114E-02   -0.10075E-02  4608   0.382E-02    0.381E-01
RMM:  34    -0.230450973378E+04   -0.10691E-02   -0.13504E-02  4766   0.491E-02    0.499E-01
RMM:  35    -0.230452790870E+04   -0.18175E-01   -0.76247E-03  4502   0.467E-02    0.103E+00
RMM:  36    -0.230453534872E+04   -0.74400E-02   -0.47722E-02  4709   0.827E-02    0.403E-01
RMM:  37    -0.230454506887E+04   -0.97202E-02   -0.94737E-03  4648   0.606E-02    0.294E-01
RMM:  38    -0.230455113383E+04   -0.60650E-02   -0.73280E-03  4960   0.416E-02    0.308E-01
RMM:  39    -0.230455411092E+04   -0.29771E-02   -0.29530E-03  4409   0.291E-02    0.225E-01
RMM:  40    -0.230455493082E+04   -0.81990E-03   -0.13374E-03  4325   0.208E-02    0.107E-01
RMM:  41    -0.230455512335E+04   -0.19253E-03   -0.59002E-04  3865   0.137E-02    0.845E-02
RMM:  42    -0.230455677636E+04   -0.16530E-02   -0.11030E-03  3974   0.159E-02    0.311E-01
RMM:  43    -0.230455625193E+04    0.52443E-03   -0.42758E-04  3651   0.129E-02    0.978E-02
RMM:  44    -0.230455638649E+04   -0.13457E-03   -0.23791E-04  3504   0.799E-03    0.413E-02
RMM:  45    -0.230455652116E+04   -0.13466E-03   -0.13419E-04  3238   0.639E-03    0.341E-02
RMM:  46    -0.230455656316E+04   -0.42000E-04   -0.24184E-05  2850   0.456E-03    0.167E-02
RMM:  47    -0.230455660190E+04   -0.38745E-04   -0.13489E-05  2593   0.295E-03    0.123E-02
RMM:  48    -0.230455662811E+04   -0.26203E-04   -0.68731E-06  2433   0.238E-03    0.144E-02
RMM:  49    -0.230455663787E+04   -0.97608E-05   -0.77316E-06  2449   0.217E-03
   1 F= -.23250029E+04 E0= -.23249893E+04  d E =-.232500E+04  mag=     2.0002
       N       E                     dE             d eps       ncg     rms          rms(c)
DAV:   1    -0.230426765830E+04    0.28897E+00   -0.34464E+02  4496   0.195E+01    0.986E+00
RMM:   2    -0.230882772581E+04   -0.45601E+01   -0.40492E+01  5942   0.462E+00    0.106E+01
RMM:   3    -0.230742849839E+04    0.13992E+01   -0.44120E+00  5183   0.160E+00    0.742E+00
RMM:   4    -0.230687284372E+04    0.55565E+00   -0.86241E-01  5340   0.537E-01    0.295E+00
RMM:   5    -0.230676695337E+04    0.10589E+00   -0.20698E-01  5578   0.351E-01    0.170E+00
RMM:   6    -0.230672447659E+04    0.42477E-01   -0.13624E-01  5029   0.233E-01    0.928E-01
RMM:   7    -0.230671497940E+04    0.94972E-02   -0.23642E-02  5208   0.177E-01    0.435E-01
RMM:   8    -0.230671080928E+04    0.41701E-02   -0.13481E-02  4740   0.705E-02    0.190E-01
RMM:   9    -0.230670991970E+04    0.88958E-03   -0.29220E-03  4909   0.571E-02    0.118E-01
RMM:  10    -0.230670979409E+04    0.12561E-03   -0.23621E-03  4660   0.332E-02    0.695E-02
RMM:  11    -0.230671004006E+04   -0.24598E-03   -0.69875E-04  4825   0.277E-02    0.456E-02
RMM:  12    -0.230671027410E+04   -0.23403E-03   -0.32997E-04  4641   0.119E-02    0.200E-02
RMM:  13    -0.230671048454E+04   -0.21045E-03   -0.11807E-04  4101   0.109E-02    0.112E-02
RMM:  14    -0.230671060450E+04   -0.11996E-03   -0.46317E-05  3557   0.549E-03    0.647E-03
RMM:  15    -0.230671067066E+04   -0.66158E-04   -0.14196E-05  2870   0.483E-03    0.472E-03
RMM:  16    -0.230671071537E+04   -0.44704E-04   -0.10805E-05  2853   0.327E-03    0.332E-03
RMM:  17    -0.230671074482E+04   -0.29450E-04   -0.60693E-06  2798   0.299E-03    0.189E-03
RMM:  18    -0.230671076060E+04   -0.15782E-04   -0.45932E-06  2669   0.232E-03    0.111E-03
RMM:  19    -0.230671076600E+04   -0.53964E-05   -0.23441E-06  2467   0.196E-03
   2 F= -.23271636E+04 E0= -.23271635E+04  d E =-.216072E+01  mag=     2.0000
       N       E                     dE             d eps       ncg     rms          rms(c)
DAV:   1    -0.230729771019E+04   -0.58695E+00   -0.69380E+01  4592   0.893E+00    0.419E+00
RMM:   2    -0.230792038585E+04   -0.62268E+00   -0.63571E+00  5873   0.193E+00    0.523E+00
RMM:   3    -0.230782917577E+04    0.91210E-01   -0.69621E-01  5212   0.655E-01    0.347E+00
RMM:   4    -0.230774594485E+04    0.83231E-01   -0.20365E-01  5262   0.255E-01    0.230E+00
RMM:   5    -0.230770517530E+04    0.40770E-01   -0.48903E-02  5709   0.172E-01    0.105E+00
RMM:   6    -0.230770503777E+04    0.13753E-03   -0.20268E-02  5256   0.854E-02    0.933E-01
RMM:   7    -0.230769485022E+04    0.10188E-01   -0.11449E-02  5549   0.815E-02    0.412E-01
RMM:   8    -0.230769260228E+04    0.22479E-02   -0.71307E-03  4965   0.466E-02    0.189E-01
RMM:   9    -0.230769181085E+04    0.79143E-03   -0.21222E-03  5009   0.354E-02    0.885E-02
RMM:  10    -0.230769149629E+04    0.31456E-03   -0.87177E-04  4876   0.197E-02    0.416E-02
RMM:  11    -0.230769144258E+04    0.53718E-04   -0.30893E-04  4530   0.160E-02    0.296E-02
RMM:  12    -0.230769145322E+04   -0.10645E-04   -0.66807E-05  4061   0.635E-03    0.188E-02
RMM:  13    -0.230769147133E+04   -0.18112E-04   -0.28854E-05  3003   0.588E-03    0.962E-03
RMM:  14    -0.230769148631E+04   -0.14979E-04   -0.20434E-05  2929   0.435E-03    0.482E-03
RMM:  15    -0.230769149486E+04   -0.85461E-05   -0.77410E-06  2805   0.388E-03
   3 F= -.23281430E+04 E0= -.23281422E+04  d E =-.979388E+00  mag=     2.0000
       N       E                     dE             d eps       ncg     rms          rms(c)
DAV:   1    -0.230691697065E+04    0.77452E+00   -0.61373E+01  4456   0.607E+00    0.355E+00
RMM:   2    -0.230915765409E+04   -0.22407E+01   -0.17264E+01  6246   0.200E+00    0.864E+00
RMM:   3    -0.230838066854E+04    0.77699E+00   -0.16359E+00  5329   0.683E-01    0.474E+00
RMM:   4    -0.230837952449E+04    0.11440E-02   -0.20723E-01  6504   0.154E-01    0.421E+00
RMM:   5    -0.230834635508E+04    0.33169E-01   -0.39022E-02  5524   0.663E-02    0.352E+00
RMM:   6    -0.230825017606E+04    0.96179E-01   -0.22174E-01  5595   0.183E-01    0.128E+00
RMM:   7    -0.230826119267E+04   -0.11017E-01   -0.52677E-02  5088   0.787E-02    0.177E+00
RMM:   8    -0.230826006731E+04    0.11254E-02   -0.11827E-02  5533   0.457E-02    0.213E+00
RMM:   9    -0.230827286196E+04   -0.12795E-01   -0.38079E-03  4867   0.263E-02    0.297E+00
RMM:  10    -0.230827894986E+04   -0.60879E-02   -0.70235E-03  4872   0.364E-02    0.304E+00
RMM:  11    -0.230824643147E+04    0.32518E-01   -0.43808E-02  5556   0.739E-02    0.639E-01
RMM:  12    -0.230824506698E+04    0.13645E-02   -0.56549E-03  4580   0.338E-02    0.622E-01
RMM:  13    -0.230824459318E+04    0.47379E-03   -0.30529E-03  4625   0.251E-02    0.470E-01
RMM:  14    -0.230824459747E+04   -0.42840E-05   -0.26148E-04  3196   0.902E-03    0.474E-01
RMM:  15    -0.230824399858E+04    0.59889E-03   -0.77239E-04  3948   0.129E-02    0.591E-01
RMM:  16    -0.230824560894E+04   -0.16104E-02   -0.32066E-03  4449   0.234E-02    0.527E-01
RMM:  17    -0.230824511744E+04    0.49150E-03   -0.18108E-03  4617   0.183E-02    0.478E-01
RMM:  18    -0.230824492028E+04    0.19716E-03   -0.19135E-03  4335   0.188E-02    0.450E-01
RMM:  19    -0.230824451705E+04    0.40323E-03   -0.42544E-04  3583   0.120E-02    0.408E-01
RMM:  20    -0.230824458316E+04   -0.66108E-04   -0.46903E-05  2881   0.383E-03    0.416E-01
RMM:  21    -0.230824456604E+04    0.17112E-04   -0.64489E-06  2761   0.255E-03    0.414E-01
RMM:  22    -0.230824391560E+04    0.65044E-03   -0.51498E-04  3660   0.972E-03    0.353E-01
RMM:  23    -0.230824294825E+04    0.96735E-03   -0.17638E-03  4212   0.181E-02    0.356E-01
RMM:  24    -0.230824262564E+04    0.32261E-03   -0.49436E-04  3533   0.108E-02    0.372E-01
RMM:  25    -0.230824290763E+04   -0.28200E-03   -0.79692E-05  2987   0.457E-03    0.359E-01
RMM:  26    -0.230824359104E+04   -0.68341E-03   -0.75135E-04  3846   0.109E-02    0.339E-01
RMM:  27    -0.230824382451E+04   -0.23347E-03   -0.21470E-04  3088   0.721E-03    0.342E-01
RMM:  28    -0.230824335501E+04    0.46950E-03   -0.32973E-04  3223   0.784E-03    0.343E-01
RMM:  29    -0.230824536560E+04   -0.20106E-02   -0.49181E-03  4554   0.263E-02    0.469E-01
RMM:  30    -0.230824482211E+04    0.54349E-03   -0.24762E-04  3246   0.963E-03    0.389E-01
RMM:  31    -0.230824387155E+04    0.95056E-03   -0.22783E-03  4245   0.188E-02    0.309E-01
RMM:  32    -0.230824322394E+04    0.64760E-03   -0.19448E-03  4127   0.198E-02    0.301E-01
RMM:  33    -0.230824328499E+04   -0.61042E-04   -0.14607E-04  2956   0.607E-03    0.302E-01
RMM:  34    -0.230824329089E+04   -0.59001E-05   -0.17341E-05  2690   0.270E-03
   4 F= -.23286940E+04 E0= -.23286840E+04  d E =-.551052E+00  mag=     2.0896
       N       E                     dE             d eps       ncg     rms          rms(c)
DAV:   1    -0.230817910555E+04    0.64179E-01   -0.94493E+00  4512   0.275E+00    0.155E+00
RMM:   2    -0.230862007526E+04   -0.44097E+00   -0.28841E+00  6330   0.851E-01    0.459E+00
RMM:   3    -0.230844387962E+04    0.17620E+00   -0.23337E-01  5843   0.247E-01    0.171E+00
RMM:   4    -0.230845061145E+04   -0.67318E-02   -0.42153E-02  5934   0.694E-02    0.169E+00
RMM:   5    -0.230845259007E+04   -0.19786E-02   -0.60285E-03  4908   0.295E-02    0.163E+00
RMM:   6    -0.230844167786E+04    0.10912E-01   -0.33076E-02  5234   0.741E-02    0.105E+00
RMM:   7    -0.230844079706E+04    0.88081E-03   -0.49526E-02  5373   0.890E-02    0.155E+00
RMM:   8    -0.230844092412E+04   -0.12706E-03   -0.49558E-03  4837   0.289E-02    0.149E+00
RMM:   9    -0.230844204948E+04   -0.11254E-02   -0.16432E-03  4264   0.175E-02    0.158E+00
RMM:  10    -0.230844166398E+04    0.38550E-03   -0.77571E-04  4043   0.123E-02    0.161E+00
RMM:  11    -0.230844142117E+04    0.24281E-03   -0.14516E-04  3064   0.657E-03    0.161E+00
RMM:  12    -0.230844129894E+04    0.12223E-03   -0.22214E-05  2835   0.320E-03    0.160E+00
RMM:  13    -0.230843264025E+04    0.86587E-02   -0.52835E-03  4845   0.338E-02    0.637E-01
RMM:  14    -0.230842845922E+04    0.41810E-02   -0.72005E-03  4456   0.365E-02    0.745E-01
RMM:  15    -0.230842876311E+04   -0.30389E-03   -0.62234E-04  3517   0.120E-02    0.718E-01
RMM:  16    -0.230842903336E+04   -0.27025E-03   -0.15305E-04  3091   0.629E-03    0.736E-01
RMM:  17    -0.230842919856E+04   -0.16521E-03   -0.25797E-05  2747   0.352E-03    0.733E-01
RMM:  18    -0.230842857867E+04    0.61989E-03   -0.17490E-03  4139   0.155E-02    0.968E-01
RMM:  19    -0.230842863273E+04   -0.54060E-04   -0.31383E-04  3156   0.861E-03    0.103E+00
RMM:  20    -0.230842825112E+04    0.38162E-03   -0.94853E-04  3838   0.127E-02    0.116E+00
RMM:  21    -0.230842864204E+04   -0.39092E-03   -0.16981E-04  3014   0.744E-03    0.119E+00
RMM:  22    -0.230842832212E+04    0.31992E-03   -0.39974E-05  2752   0.314E-03    0.119E+00
RMM:  23    -0.230841037805E+04    0.17944E-01   -0.36057E-02  4206   0.390E-02    0.755E-01
RMM:  24    -0.230841204337E+04   -0.16653E-02   -0.22268E-03  3884   0.211E-02    0.905E-01
RMM:  25    -0.230841205005E+04   -0.66788E-05   -0.21156E-04  3128   0.655E-03    0.896E-01
RMM:  26    -0.230840084349E+04    0.11207E-01   -0.12875E-02  4169   0.305E-02    0.771E-01
RMM:  27    -0.230836532521E+04    0.35518E-01   -0.28285E-02  4455   0.528E-02    0.848E-01
RMM:  28    -0.230837036319E+04   -0.50380E-02   -0.80480E-04  3324   0.126E-02    0.838E-01
RMM:  29    -0.230837300781E+04   -0.26446E-02   -0.13923E-04  2980   0.539E-03    0.821E-01
RMM:  30    -0.230838670961E+04   -0.13702E-01   -0.29259E-03  3380   0.163E-02    0.786E-01
RMM:  31    -0.230838897722E+04   -0.22676E-02   -0.27180E-04  2827   0.652E-03    0.782E-01
RMM:  32    -0.230840305330E+04   -0.14076E-01   -0.53980E-03  3906   0.234E-02    0.775E-01
RMM:  33    -0.230840323899E+04   -0.18569E-03   -0.20932E-04  2836   0.677E-03    0.776E-01
RMM:  34    -0.230840138038E+04    0.18586E-02   -0.92403E-05  2541   0.341E-03    0.781E-01
RMM:  35    -0.230839688737E+04    0.44930E-02   -0.60213E-04  2873   0.765E-03    0.782E-01
RMM:  36    -0.230839485326E+04    0.20341E-02   -0.17795E-04  2582   0.488E-03    0.783E-01
RMM:  37    -0.230840790965E+04   -0.13056E-01   -0.45607E-03  3506   0.199E-02    0.757E-01
RMM:  38    -0.230842456377E+04   -0.16654E-01   -0.14271E-02  4128   0.354E-02    0.102E+00
RMM:  39    -0.230838953781E+04    0.35026E-01   -0.71627E-02  4479   0.630E-02    0.756E-01
RMM:  40    -0.230833550998E+04    0.54028E-01   -0.42515E-02  4659   0.709E-02    0.886E-01
RMM:  41    -0.230830902913E+04    0.26481E-01   -0.84537E-03  4264   0.326E-02    0.974E-01
RMM:  42    -0.230811702933E+04    0.19200E+00   -0.10583E-01  4524   0.109E-01    0.135E+00
RMM:  43    -0.230810729646E+04    0.97329E-02   -0.45123E-03  3898   0.290E-02    0.137E+00
RMM:  44    -0.230810678871E+04    0.50775E-03   -0.28426E-04  3303   0.656E-03    0.137E+00
RMM:  45    -0.230801659424E+04    0.90194E-01   -0.12286E-02  4050   0.396E-02    0.149E+00
RMM:  46    -0.230797275125E+04    0.43843E-01   -0.46048E-03  3544   0.241E-02    0.155E+00
RMM:  47    -0.230800062398E+04   -0.27873E-01   -0.11599E-03  3157   0.118E-02    0.152E+00
RMM:  48    -0.230805082891E+04   -0.50205E-01   -0.51680E-03  3639   0.271E-02    0.143E+00
RMM:  49    -0.230813311663E+04   -0.82288E-01   -0.15051E-02  4083   0.482E-02    0.129E+00
RMM:  50    -0.230828220815E+04   -0.14909E+00   -0.67482E-02  4497   0.847E-02    0.906E-01
RMM:  51    -0.230833926506E+04   -0.57057E-01   -0.25520E-02  4357   0.575E-02    0.739E-01
RMM:  52    -0.230838377547E+04   -0.44510E-01   -0.23623E-02  4448   0.494E-02    0.549E-01
RMM:  53    -0.230842882051E+04   -0.45045E-01   -0.54913E-02  4496   0.668E-02    0.875E-01
RMM:  54    -0.230843012425E+04   -0.13037E-02   -0.40314E-03  3625   0.274E-02    0.966E-01
RMM:  55    -0.230843528237E+04   -0.51581E-02   -0.27776E-03  3443   0.113E-02    0.135E+00
RMM:  56    -0.230843738223E+04   -0.20999E-02   -0.60853E-04  2977   0.853E-03    0.151E+00
RMM:  57    -0.230841764541E+04    0.19737E-01   -0.43609E-02  3821   0.377E-02    0.507E-01
RMM:  58    -0.230842613030E+04   -0.84849E-02   -0.38818E-03  3425   0.179E-02    0.765E-01
RMM:  59    -0.230842742681E+04   -0.12965E-02   -0.33788E-04  2974   0.712E-03    0.860E-01
RMM:  60    -0.230842353470E+04    0.38921E-02   -0.10373E-03  3133   0.952E-03    0.690E-01
RMM:  61    -0.230843063834E+04   -0.71036E-02   -0.42443E-03  3670   0.192E-02    0.111E+00
RMM:  62    -0.230842559926E+04    0.50391E-02   -0.20255E-03  3387   0.147E-02    0.850E-01
RMM:  63    -0.230842689135E+04   -0.12921E-02   -0.55224E-04  3122   0.910E-03    0.902E-01
RMM:  64    -0.230842310635E+04    0.37850E-02   -0.90809E-04  3275   0.101E-02    0.715E-01
RMM:  65    -0.230841252246E+04    0.10584E-01   -0.76203E-03  4050   0.246E-02    0.504E-01
RMM:  66    -0.230840925985E+04    0.32626E-02   -0.13097E-03  3332   0.140E-02    0.486E-01
RMM:  67    -0.230839611770E+04    0.13142E-01   -0.58763E-03  3960   0.233E-02    0.553E-01
RMM:  68    -0.230838760073E+04    0.85170E-02   -0.20423E-03  3380   0.156E-02    0.585E-01
RMM:  69    -0.230838212459E+04    0.54761E-02   -0.82008E-04  3130   0.104E-02    0.598E-01
RMM:  70    -0.230838258350E+04   -0.45891E-03   -0.56053E-05  2678   0.431E-03    0.597E-01
RMM:  71    -0.230838220252E+04    0.38099E-03   -0.21822E-05  2460   0.220E-03    0.598E-01
RMM:  72    -0.230840127428E+04   -0.19072E-01   -0.66475E-03  3575   0.233E-02    0.526E-01
RMM:  73    -0.230839790052E+04    0.33738E-02   -0.39161E-04  3107   0.799E-03    0.581E-01
RMM:  74    -0.230840101149E+04   -0.31110E-02   -0.36955E-04  2929   0.685E-03    0.574E-01
RMM:  75    -0.230840260728E+04   -0.15958E-02   -0.17258E-04  2843   0.523E-03    0.575E-01
RMM:  76    -0.230840653298E+04   -0.39257E-02   -0.52124E-04  2937   0.763E-03    0.567E-01
RMM:  77    -0.230839660844E+04    0.99245E-02   -0.79913E-03  4261   0.352E-02    0.823E-01
RMM:  78    -0.230840149816E+04   -0.48897E-02   -0.73165E-04  3371   0.145E-02    0.787E-01
RMM:  79    -0.230840253374E+04   -0.10356E-02   -0.10182E-04  2859   0.445E-03    0.784E-01
RMM:  80    -0.230839330730E+04    0.92264E-02   -0.18208E-03  3278   0.130E-02    0.830E-01
RMM:  81    -0.230839619062E+04   -0.28833E-02   -0.13080E-04  2621   0.469E-03    0.814E-01
RMM:  82    -0.230842484986E+04   -0.28659E-01   -0.25090E-02  4236   0.493E-02    0.917E-01
RMM:  83    -0.230842378273E+04    0.10671E-02   -0.84240E-04  3193   0.148E-02    0.878E-01
RMM:  84    -0.230842140253E+04    0.23802E-02   -0.28629E-04  2908   0.537E-03    0.806E-01
RMM:  85    -0.230842543857E+04   -0.40360E-02   -0.15188E-03  3243   0.107E-02    0.928E-01
RMM:  86    -0.230842686678E+04   -0.14282E-02   -0.16739E-04  2723   0.521E-03    0.982E-01
RMM:  87    -0.230838089869E+04    0.45968E-01   -0.99685E-02  4343   0.691E-02    0.809E-01
RMM:  88    -0.230836395882E+04    0.16940E-01   -0.62503E-03  3766   0.273E-02    0.835E-01
RMM:  89    -0.230834759598E+04    0.16363E-01   -0.31885E-03  3666   0.181E-02    0.869E-01
RMM:  90    -0.230833196629E+04    0.15630E-01   -0.28390E-03  3408   0.173E-02    0.883E-01
RMM:  91    -0.230830524558E+04    0.26721E-01   -0.50077E-03  3711   0.218E-02    0.916E-01
RMM:  92    -0.230830095098E+04    0.42946E-02   -0.51132E-04  3052   0.905E-03    0.922E-01
RMM:  93    -0.230827583010E+04    0.25121E-01   -0.36649E-03  3580   0.179E-02    0.945E-01
RMM:  94    -0.230823947380E+04    0.36356E-01   -0.65534E-03  3742   0.244E-02    0.994E-01
RMM:  95    -0.230822168968E+04    0.17784E-01   -0.17872E-03  3337   0.146E-02    0.102E+00
RMM:  96    -0.230825393628E+04   -0.32247E-01   -0.32880E-03  3348   0.169E-02    0.968E-01
RMM:  97    -0.230831894350E+04   -0.65007E-01   -0.19053E-02  4080   0.400E-02    0.825E-01
RMM:  98    -0.230834650921E+04   -0.27566E-01   -0.76181E-03  3728   0.286E-02    0.750E-01
RMM:  99    -0.230837795700E+04   -0.31448E-01   -0.11354E-02  4093   0.325E-02    0.651E-01
RMM: 100    -0.230839715777E+04   -0.19201E-01   -0.74700E-03  3789   0.279E-02    0.582E-01
RMM: 101    -0.230841125079E+04   -0.14093E-01   -0.65781E-03  3848   0.262E-02    0.569E-01
RMM: 102    -0.230843080644E+04   -0.19556E-01   -0.17829E-02  4268   0.391E-02    0.110E+00
RMM: 103    -0.230843661682E+04   -0.58104E-02   -0.67887E-03  3879   0.247E-02    0.141E+00
RMM: 104    -0.230843754113E+04   -0.92432E-03   -0.11186E-03  3480   0.111E-02    0.145E+00
RMM: 105    -0.230843742927E+04    0.11186E-03   -0.15643E-04  2886   0.420E-03    0.145E+00
RMM: 106    -0.230843741270E+04    0.16567E-04   -0.62811E-06  2581   0.199E-03    0.145E+00
RMM: 107    -0.230843946041E+04   -0.20477E-02   -0.30926E-04  3331   0.701E-03    0.163E+00
RMM: 108    -0.230843774341E+04    0.17170E-02   -0.25461E-04  3115   0.634E-03    0.144E+00
RMM: 109    -0.230843730018E+04    0.44323E-03   -0.38136E-05  2697   0.378E-03    0.140E+00
RMM: 110    -0.230843791246E+04   -0.61228E-03   -0.11176E-04  2803   0.386E-03    0.148E+00
RMM: 111    -0.230843730837E+04    0.60409E-03   -0.11992E-03  3695   0.108E-02    0.132E+00
RMM: 112    -0.230843745200E+04   -0.14363E-03   -0.71417E-05  2793   0.469E-03    0.137E+00
RMM: 113    -0.230843757119E+04   -0.11919E-03   -0.61438E-06  2423   0.173E-03    0.138E+00
RMM: 114    -0.230843765400E+04   -0.82817E-04   -0.30890E-06  2072   0.110E-03    0.138E+00
RMM: 115    -0.230843760451E+04    0.49493E-04   -0.11083E-04  2855   0.375E-03    0.140E+00
RMM: 116    -0.230843751298E+04    0.91534E-04   -0.10694E-05  2164   0.199E-03    0.139E+00
RMM: 117    -0.230842412143E+04    0.13392E-01   -0.26666E-02  4234   0.343E-02    0.742E-01
RMM: 118    -0.230840520007E+04    0.18921E-01   -0.20164E-02  4069   0.379E-02    0.538E-01
RMM: 119    -0.230840807466E+04   -0.28746E-02   -0.53520E-04  3154   0.101E-02    0.548E-01
RMM: 120    -0.230840766597E+04    0.40869E-03   -0.71756E-05  2800   0.364E-03    0.548E-01
RMM: 121    -0.230840859734E+04   -0.93137E-03   -0.27634E-05  2477   0.299E-03    0.544E-01
RMM: 122    -0.230839019342E+04    0.18404E-01   -0.75285E-03  4023   0.287E-02    0.670E-01
RMM: 123    -0.230837465086E+04    0.15543E-01   -0.45852E-03  3719   0.241E-02    0.723E-01
RMM: 124    -0.230835694343E+04    0.17707E-01   -0.46379E-03  3812   0.226E-02    0.762E-01
RMM: 125    -0.230837170989E+04   -0.14766E-01   -0.20442E-03  3343   0.150E-02    0.717E-01
RMM: 126    -0.230838916903E+04   -0.17459E-01   -0.43591E-03  3750   0.213E-02    0.646E-01
RMM: 127    -0.230840440204E+04   -0.15233E-01   -0.55449E-03  3853   0.243E-02    0.576E-01
RMM: 128    -0.230840281269E+04    0.15893E-02   -0.17187E-04  2862   0.678E-03    0.583E-01
RMM: 129    -0.230840501590E+04   -0.22032E-02   -0.16460E-04  2731   0.428E-03    0.576E-01
RMM: 130    -0.230840464367E+04    0.37222E-03   -0.18753E-05  2464   0.255E-03    0.578E-01
RMM: 131    -0.230840722566E+04   -0.25820E-02   -0.27254E-04  2952   0.593E-03    0.579E-01
RMM: 132    -0.230840843479E+04   -0.12091E-02   -0.81201E-05  2565   0.360E-03    0.579E-01
RMM: 133    -0.230840784328E+04    0.59151E-03   -0.18486E-05  2407   0.224E-03    0.584E-01
RMM: 134    -0.230840839628E+04   -0.55300E-03   -0.30798E-05  2474   0.245E-03    0.587E-01
RMM: 135    -0.230840784616E+04    0.55012E-03   -0.22123E-05  2589   0.234E-03    0.592E-01
RMM: 136    -0.230841064351E+04   -0.27973E-02   -0.31875E-04  3007   0.615E-03    0.593E-01
RMM: 137    -0.230839183405E+04    0.18809E-01   -0.10560E-02  4046   0.322E-02    0.629E-01
RMM: 138    -0.230839444674E+04   -0.26127E-02   -0.21112E-04  3024   0.727E-03    0.624E-01
RMM: 139    -0.230839682308E+04   -0.23763E-02   -0.96548E-05  2821   0.436E-03    0.608E-01
RMM: 140    -0.230838221214E+04    0.14611E-01   -0.39503E-03  3775   0.209E-02    0.658E-01
RMM: 141    -0.230837866589E+04    0.35463E-02   -0.48697E-04  3059   0.940E-03    0.667E-01
RMM: 142    -0.230832166146E+04    0.57004E-01   -0.27095E-02  4196   0.504E-02    0.822E-01
RMM: 143    -0.230830059562E+04    0.21066E-01   -0.42890E-03  3641   0.231E-02    0.869E-01
RMM: 144    -0.230831988520E+04   -0.19290E-01   -0.17334E-03  3252   0.127E-02    0.829E-01
RMM: 145    -0.230837722107E+04   -0.57336E-01   -0.28534E-02  4198   0.498E-02    0.686E-01
RMM: 146    -0.230839555560E+04   -0.18335E-01   -0.72093E-03  3816   0.288E-02    0.618E-01
RMM: 147    -0.230839987860E+04   -0.43230E-02   -0.11611E-03  3375   0.128E-02    0.598E-01
RMM: 148    -0.230839413086E+04    0.57477E-02   -0.63136E-04  3059   0.887E-03    0.621E-01
RMM: 149    -0.230839349005E+04    0.64081E-03   -0.31164E-05  2447   0.295E-03    0.622E-01
RMM: 150    -0.230839683469E+04   -0.33446E-02   -0.19352E-04  2460   0.440E-03    0.610E-01
RMM: 151    -0.230840184202E+04   -0.50073E-02   -0.53232E-04  3039   0.715E-03    0.588E-01
RMM: 152    -0.230841341633E+04   -0.11574E-01   -0.37274E-03  3772   0.190E-02    0.592E-01
RMM: 153    -0.230841447275E+04   -0.10564E-02   -0.25442E-04  2936   0.668E-03    0.593E-01
RMM: 154    -0.230841492676E+04   -0.45401E-03   -0.48295E-05  2587   0.273E-03    0.597E-01
RMM: 155    -0.230841432221E+04    0.60454E-03   -0.15002E-05  2257   0.209E-03    0.594E-01
RMM: 156    -0.230841142961E+04    0.28926E-02   -0.32646E-04  2810   0.563E-03    0.592E-01
RMM: 157    -0.230839473124E+04    0.16698E-01   -0.68872E-03  3898   0.256E-02    0.633E-01
RMM: 158    -0.230839206763E+04    0.26636E-02   -0.47137E-04  3017   0.882E-03    0.651E-01
RMM: 159    -0.230839230229E+04   -0.23465E-03   -0.35865E-05  2568   0.291E-03    0.650E-01
RMM: 160    -0.230839786467E+04   -0.55624E-02   -0.53874E-04  2923   0.760E-03    0.625E-01
RMM: 161    -0.230840031521E+04   -0.24505E-02   -0.19071E-04  2582   0.507E-03    0.621E-01
RMM: 162    -0.230843355024E+04   -0.33235E-01   -0.31686E-02  4319   0.492E-02    0.131E+00
RMM: 163    -0.230842203632E+04    0.11514E-01   -0.11698E-02  3519   0.228E-02    0.749E-01
RMM: 164    -0.230841020533E+04    0.11831E-01   -0.73334E-03  3864   0.236E-02    0.569E-01
RMM: 165    -0.230839455128E+04    0.15654E-01   -0.67205E-03  3787   0.259E-02    0.593E-01
RMM: 166    -0.230838143978E+04    0.13112E-01   -0.32326E-03  3621   0.192E-02    0.660E-01
RMM: 167    -0.230837933293E+04    0.21068E-02   -0.28811E-04  2905   0.749E-03    0.665E-01
RMM: 168    -0.230838099739E+04   -0.16645E-02   -0.57789E-05  2556   0.354E-03    0.659E-01
RMM: 169    -0.230837691840E+04    0.40790E-02   -0.20651E-04  2760   0.482E-03    0.675E-01
RMM: 170    -0.230838041748E+04   -0.34991E-02   -0.12511E-04  2443   0.394E-03    0.661E-01
RMM: 171    -0.230838579205E+04   -0.53746E-02   -0.37693E-04  2678   0.598E-03    0.646E-01
RMM: 172    -0.230838292426E+04    0.28678E-02   -0.11124E-04  2584   0.403E-03    0.668E-01
RMM: 173    -0.230838114851E+04    0.17757E-02   -0.88473E-05  2417   0.371E-03    0.670E-01
RMM: 174    -0.230837724406E+04    0.39045E-02   -0.19392E-04  2721   0.507E-03    0.691E-01
RMM: 175    -0.230837404948E+04    0.31946E-02   -0.14510E-04  2641   0.441E-03    0.706E-01
RMM: 176    -0.230837873299E+04   -0.46835E-02   -0.19919E-04  2455   0.470E-03    0.685E-01
RMM: 177    -0.230839591149E+04   -0.17179E-01   -0.40293E-03  3558   0.192E-02    0.605E-01
RMM: 178    -0.230840298188E+04   -0.70704E-02   -0.14254E-03  3216   0.127E-02    0.578E-01
RMM: 179    -0.230840082973E+04    0.21522E-02   -0.94381E-05  2579   0.467E-03    0.586E-01
RMM: 180    -0.230840130667E+04   -0.47694E-03   -0.13402E-05  2069   0.176E-03    0.587E-01
RMM: 181    -0.230840214687E+04   -0.84021E-03   -0.21890E-05  1987   0.195E-03    0.584E-01
RMM: 182    -0.230840059279E+04    0.15541E-02   -0.86438E-05  2365   0.349E-03    0.597E-01
RMM: 183    -0.230840165254E+04   -0.10598E-02   -0.36324E-05  1922   0.231E-03    0.594E-01
RMM: 184    -0.230840272432E+04   -0.10718E-02   -0.36541E-05  1948   0.225E-03    0.593E-01
RMM: 185    -0.230840538212E+04   -0.26578E-02   -0.20137E-04  2718   0.479E-03    0.591E-01
RMM: 186    -0.230840679051E+04   -0.14084E-02   -0.12678E-04  2763   0.437E-03    0.593E-01
RMM: 187    -0.230840573765E+04    0.10529E-02   -0.39013E-05  2358   0.276E-03    0.595E-01
RMM: 188    -0.230840710638E+04   -0.13687E-02   -0.75380E-05  2301   0.317E-03    0.599E-01
RMM: 189    -0.230840716027E+04   -0.53888E-04   -0.37717E-06  1895   0.142E-03    0.599E-01
RMM: 190    -0.230840756009E+04   -0.39982E-03   -0.89612E-06  1604   0.140E-03    0.599E-01
RMM: 191    -0.230840128090E+04    0.62792E-02   -0.97442E-04  3049   0.940E-03    0.616E-01
RMM: 192    -0.230840005641E+04    0.12245E-02   -0.13697E-04  2733   0.472E-03    0.621E-01
RMM: 193    -0.230840276286E+04   -0.27065E-02   -0.20802E-04  2801   0.517E-03    0.613E-01
RMM: 194    -0.230840536662E+04   -0.26038E-02   -0.25241E-04  2883   0.618E-03    0.608E-01
RMM: 195    -0.230840564189E+04   -0.27527E-03   -0.26383E-05  2468   0.278E-03    0.608E-01
RMM: 196    -0.230840994989E+04   -0.43080E-02   -0.60820E-04  3016   0.804E-03    0.616E-01
RMM: 197    -0.230839785080E+04    0.12099E-01   -0.39561E-03  3442   0.201E-02    0.624E-01
RMM: 198    -0.230840131054E+04   -0.34597E-02   -0.23769E-04  2731   0.580E-03    0.611E-01
RMM: 199    -0.230840682749E+04   -0.55169E-02   -0.71622E-04  3005   0.872E-03    0.600E-01
RMM: 200    -0.230840796980E+04   -0.11423E-02   -0.91825E-05  2470   0.412E-03    0.602E-01
RMM: 201    -0.230840933956E+04   -0.13698E-02   -0.10655E-04  2492   0.398E-03    0.610E-01
RMM: 202    -0.230840603045E+04    0.33091E-02   -0.36567E-04  2837   0.651E-03    0.615E-01
RMM: 203    -0.230840598345E+04    0.47003E-04   -0.19434E-05  2298   0.241E-03    0.617E-01
RMM: 204    -0.230840782695E+04   -0.18435E-02   -0.87394E-05  2262   0.314E-03    0.611E-01
RMM: 205    -0.230841371455E+04   -0.58876E-02   -0.11578E-03  3157   0.102E-02    0.641E-01
RMM: 206    -0.230841440859E+04   -0.69404E-03   -0.79541E-05  2484   0.374E-03    0.643E-01
RMM: 207    -0.230844273337E+04   -0.28325E-01   -0.39431E-02  4562   0.609E-02    0.170E+00
RMM: 208    -0.230844345003E+04   -0.71667E-03   -0.29237E-03  3915   0.270E-02    0.173E+00
RMM: 209    -0.230844343513E+04    0.14906E-04   -0.37088E-04  3297   0.569E-03    0.177E+00
RMM: 210    -0.230844340164E+04    0.33489E-04   -0.14874E-05  2673   0.300E-03    0.177E+00
RMM: 211    -0.230844346260E+04   -0.60958E-04   -0.87801E-06  2477   0.170E-03    0.178E+00
RMM: 212    -0.230844253899E+04    0.92360E-03   -0.31084E-03  4063   0.191E-02    0.190E+00
RMM: 213    -0.230844239347E+04    0.14553E-03   -0.93900E-04  3569   0.139E-02    0.194E+00
RMM: 214    -0.230844237288E+04    0.20582E-04   -0.13721E-04  2857   0.439E-03    0.193E+00
RMM: 215    -0.230844231326E+04    0.59625E-04   -0.16793E-05  2503   0.289E-03    0.191E+00
RMM: 216    -0.230844231452E+04   -0.12614E-05   -0.14812E-06  2214   0.119E-03
   5 F= -.23288916E+04 E0= -.23288791E+04  d E =-.197589E+00  mag=     2.1603
       N       E                     dE             d eps       ncg     rms          rms(c)
DAV:   1    -0.230806977163E+04    0.37254E+00   -0.18598E+01  4472   0.343E+00    0.215E+00
RMM:   2    -0.230894242329E+04   -0.87265E+00   -0.65343E+00  6470   0.117E+00    0.507E+00
RMM:   3    -0.230861129724E+04    0.33113E+00   -0.58407E-01  5897   0.354E-01    0.107E+00
RMM:   4    -0.230860779675E+04    0.35005E-02   -0.10071E-01  5944   0.106E-01    0.682E-01
RMM:   5    -0.230860586372E+04    0.19330E-02   -0.92353E-03  5396   0.394E-02    0.517E-01
RMM:   6    -0.230860505491E+04    0.80881E-03   -0.12089E-02  5329   0.506E-02    0.288E-01
RMM:   7    -0.230860488188E+04    0.17303E-03   -0.23962E-03  4578   0.294E-02    0.318E-01
RMM:   8    -0.230860536510E+04   -0.48322E-03   -0.48515E-04  3567   0.887E-03    0.376E-01
RMM:   9    -0.230860518110E+04    0.18400E-03   -0.22447E-03  4265   0.181E-02    0.380E-01
RMM:  10    -0.230860545513E+04   -0.27403E-03   -0.24094E-03  4305   0.213E-02    0.444E-01
RMM:  11    -0.230860509752E+04    0.35760E-03   -0.18806E-02  4562   0.504E-02    0.478E-01
RMM:  12    -0.230860202013E+04    0.30774E-02   -0.10352E-02  4374   0.423E-02    0.541E-01
RMM:  13    -0.230860471824E+04   -0.26981E-02   -0.13485E-03  3638   0.127E-02    0.584E-01
RMM:  14    -0.230860222425E+04    0.24940E-02   -0.21260E-03  3810   0.138E-02    0.495E-01
RMM:  15    -0.230858055376E+04    0.21670E-01   -0.28960E-02  4451   0.498E-02    0.778E-01
RMM:  16    -0.230860306251E+04   -0.22509E-01   -0.18974E-02  4380   0.401E-02    0.609E-01
RMM:  17    -0.230860137658E+04    0.16859E-02   -0.50994E-04  3306   0.102E-02    0.579E-01
RMM:  18    -0.230859002444E+04    0.11352E-01   -0.12770E-02  3980   0.299E-02    0.650E-01
RMM:  19    -0.230857600517E+04    0.14019E-01   -0.11035E-02  4141   0.351E-02    0.687E-01
RMM:  20    -0.230856775096E+04    0.82542E-02   -0.23117E-03  3638   0.174E-02    0.740E-01
RMM:  21    -0.230860589010E+04   -0.38139E-01   -0.54114E-02  4496   0.676E-02    0.533E-01
RMM:  22    -0.230860618168E+04   -0.29158E-03   -0.12962E-02  4739   0.449E-02    0.244E-01
RMM:  23    -0.230860695801E+04   -0.77633E-03   -0.51454E-03  4884   0.261E-02    0.274E-01
RMM:  24    -0.230860678725E+04    0.17077E-03   -0.38604E-04  3563   0.847E-03    0.287E-01
RMM:  25    -0.230860644825E+04    0.33900E-03   -0.19278E-03  3962   0.153E-02    0.216E-01
RMM:  26    -0.230860690496E+04   -0.45671E-03   -0.67080E-04  3585   0.115E-02    0.209E-01
RMM:  27    -0.230860818346E+04   -0.12785E-02   -0.15444E-03  4095   0.154E-02    0.165E-01
RMM:  28    -0.230860840405E+04   -0.22058E-03   -0.21366E-04  3077   0.798E-03    0.155E-01
RMM:  29    -0.230860845040E+04   -0.46357E-04   -0.46380E-05  2817   0.318E-03    0.155E-01
RMM:  30    -0.230860847986E+04   -0.29460E-04   -0.47890E-05  2732   0.362E-03    0.158E-01
RMM:  31    -0.230860959279E+04   -0.11129E-02   -0.50254E-04  3808   0.862E-03    0.328E-01
RMM:  32    -0.230860983111E+04   -0.23832E-03   -0.28680E-04  3187   0.712E-03    0.329E-01
RMM:  33    -0.230860995629E+04   -0.12518E-03   -0.22748E-04  3241   0.643E-03    0.322E-01
RMM:  34    -0.230861006900E+04   -0.11271E-03   -0.10503E-04  2913   0.510E-03    0.329E-01
RMM:  35    -0.230860984757E+04    0.22143E-03   -0.18674E-04  2944   0.568E-03    0.327E-01
RMM:  36    -0.230860942612E+04    0.42145E-03   -0.45111E-04  3560   0.842E-03    0.303E-01
RMM:  37    -0.230860847010E+04    0.95602E-03   -0.59633E-03  4506   0.289E-02    0.441E-01
RMM:  38    -0.230860837904E+04    0.91065E-04   -0.87354E-04  3717   0.154E-02    0.458E-01
RMM:  39    -0.230860834691E+04    0.32128E-04   -0.18031E-04  3130   0.471E-03    0.462E-01
RMM:  40    -0.230860834651E+04    0.39830E-06   -0.10217E-05  2656   0.317E-03
   6 F= -.23290554E+04 E0= -.23290510E+04  d E =-.163771E+00  mag=     2.0616
       N       E                     dE             d eps       ncg     rms          rms(c)
DAV:   1    -0.230830298153E+04    0.30537E+00   -0.16578E+01  4496   0.331E+00    0.198E+00
RMM:   2    -0.230897600936E+04   -0.67303E+00   -0.48762E+00  6466   0.103E+00    0.457E+00
RMM:   3    -0.230871908234E+04    0.25693E+00   -0.49781E-01  5991   0.314E-01    0.926E-01
RMM:   4    -0.230871732776E+04    0.17546E-02   -0.68713E-02  5750   0.879E-02    0.649E-01
RMM:   5    -0.230871433361E+04    0.29941E-02   -0.75780E-03  5577   0.361E-02    0.469E-01
RMM:   6    -0.230871220306E+04    0.21306E-02   -0.94504E-03  5652   0.489E-02    0.160E-01
RMM:   7    -0.230871210389E+04    0.99167E-04   -0.83719E-04  4398   0.193E-02    0.730E-02
RMM:   8    -0.230871221797E+04   -0.11408E-03   -0.19136E-04  3574   0.757E-03    0.424E-02
RMM:   9    -0.230871227056E+04   -0.52586E-04   -0.53702E-05  2964   0.509E-03    0.215E-02
RMM:  10    -0.230871233618E+04   -0.65620E-04   -0.34103E-05  2927   0.420E-03    0.132E-02
RMM:  11    -0.230871235952E+04   -0.23335E-04   -0.10115E-05  2820   0.372E-03    0.830E-03
RMM:  12    -0.230871238368E+04   -0.24163E-04   -0.10300E-05  2799   0.268E-03    0.559E-03
RMM:  13    -0.230871240220E+04   -0.18520E-04   -0.55281E-06  2748   0.269E-03    0.366E-03
RMM:  14    -0.230871241260E+04   -0.10400E-04   -0.38894E-06  2646   0.216E-03    0.261E-03
RMM:  15    -0.230871241724E+04   -0.46450E-05   -0.22541E-06  2521   0.197E-03
   7 F= -.23291572E+04 E0= -.23291561E+04  d E =-.101865E+00  mag=     1.9785
       N       E                     dE             d eps       ncg     rms          rms(c)
DAV:   1    -0.230873477379E+04   -0.22361E-01   -0.13116E+00  4512   0.959E-01    0.305E-01
RMM:   2    -0.230874660206E+04   -0.11828E-01   -0.12574E-01  6130   0.205E-01    0.224E-01
RMM:   3    -0.230874736256E+04   -0.76050E-03   -0.10156E-02  5607   0.560E-02    0.258E-01
RMM:   4    -0.230874685018E+04    0.51238E-03   -0.16454E-03  4911   0.184E-02    0.139E-01
RMM:   5    -0.230874665615E+04    0.19403E-03   -0.34445E-04  4178   0.125E-02    0.685E-02
RMM:   6    -0.230874658775E+04    0.68398E-04   -0.32528E-04  4610   0.114E-02    0.201E-02
RMM:   7    -0.230874658428E+04    0.34749E-05   -0.23939E-05  2853   0.637E-03
   8 F= -.23291916E+04 E0= -.23291905E+04  d E =-.343975E-01  mag=     1.9771
       N       E                     dE             d eps       ncg     rms          rms(c)
DAV:   1    -0.230871742093E+04    0.29167E-01   -0.10655E+01  4464   0.270E+00    0.896E-01
RMM:   2    -0.230884390711E+04   -0.12649E+00   -0.11677E+00  6253   0.574E-01    0.142E+00
RMM:   3    -0.230883162847E+04    0.12279E-01   -0.10998E-01  6017   0.160E-01    0.570E-01
RMM:   4    -0.230882888368E+04    0.27448E-02   -0.10861E-02  5570   0.446E-02    0.316E-01
RMM:   5    -0.230882816787E+04    0.71582E-03   -0.24916E-03  5292   0.296E-02    0.208E-01
RMM:   6    -0.230882786197E+04    0.30589E-03   -0.21193E-03  5046   0.239E-02    0.127E-01
RMM:   7    -0.230882777375E+04    0.88218E-04   -0.26883E-04  3915   0.134E-02    0.658E-02
RMM:   8    -0.230882774085E+04    0.32907E-04   -0.10417E-04  3151   0.630E-03    0.302E-02
RMM:   9    -0.230882774670E+04   -0.58515E-05   -0.24521E-05  2854   0.419E-03
   9 F= -.23292726E+04 E0= -.23292716E+04  d E =-.809401E-01  mag=     1.9892
       N       E                     dE             d eps       ncg     rms          rms(c)
DAV:   1    -0.230855961777E+04    0.26812E+00   -0.29941E+01  4464   0.456E+00    0.170E+00
RMM:   2    -0.230898225077E+04   -0.42263E+00   -0.37534E+00  6292   0.987E-01    0.294E+00
RMM:   3    -0.230893180391E+04    0.50447E-01   -0.38849E-01  6051   0.294E-01    0.109E+00
RMM:   4    -0.230892203314E+04    0.97708E-02   -0.36789E-02  5575   0.767E-02    0.588E-01
RMM:   5    -0.230892093089E+04    0.11022E-02   -0.70544E-03  5335   0.467E-02    0.396E-01
RMM:   6    -0.230891927429E+04    0.16566E-02   -0.56682E-03  5133   0.354E-02    0.169E-01
RMM:   7    -0.230891942732E+04   -0.15303E-03   -0.13473E-03  4733   0.265E-02    0.170E-01
RMM:   8    -0.230891928071E+04    0.14661E-03   -0.35315E-04  4120   0.117E-02    0.571E-02
RMM:   9    -0.230891926137E+04    0.19338E-04   -0.12580E-04  3093   0.791E-03    0.251E-02
RMM:  10    -0.230891925776E+04    0.36130E-05   -0.19674E-05  2855   0.327E-03
  10 F= -.23293635E+04 E0= -.23293622E+04  d E =-.909632E-01  mag=     1.9976
       N       E                     dE             d eps       ncg     rms          rms(c)
DAV:   1    -0.230892843968E+04   -0.91783E-02   -0.48108E-01  4608   0.643E-01    0.206E-01
RMM:   2    -0.230893239034E+04   -0.39507E-02   -0.32158E-02  5927   0.121E-01    0.383E-01
RMM:   3    -0.230893122329E+04    0.11670E-02   -0.31357E-03  5015   0.405E-02    0.118E-01
RMM:   4    -0.230893111286E+04    0.11043E-03   -0.41136E-04  4118   0.108E-02    0.640E-02
RMM:   5    -0.230893108436E+04    0.28502E-04   -0.21083E-04  4113   0.102E-02    0.373E-02
RMM:   6    -0.230893106722E+04    0.17134E-04   -0.47993E-05  3032   0.681E-03    0.161E-02
RMM:   7    -0.230893106631E+04    0.91542E-06   -0.92024E-06  2835   0.411E-03
  11 F= -.23293752E+04 E0= -.23293739E+04  d E =-.117123E-01  mag=     1.9991
       N       E                     dE             d eps       ncg     rms          rms(c)
DAV:   1    -0.230892417508E+04    0.68921E-02   -0.30309E+00  4440   0.151E+00    0.496E-01
RMM:   2    -0.230896069411E+04   -0.36519E-01   -0.30879E-01  6171   0.311E-01    0.101E+00
RMM:   3    -0.230895304559E+04    0.76485E-02   -0.26956E-02  5663   0.943E-02    0.254E-01
RMM:   4    -0.230895264744E+04    0.39815E-03   -0.33940E-03  4959   0.235E-02    0.147E-01
RMM:   5    -0.230895251911E+04    0.12833E-03   -0.70744E-04  4804   0.165E-02    0.108E-01
RMM:   6    -0.230895239422E+04    0.12489E-03   -0.56341E-04  4741   0.144E-02    0.369E-02
RMM:   7    -0.230895239022E+04    0.39989E-05   -0.59526E-05  2933   0.767E-03
  12 F= -.23293964E+04 E0= -.23293950E+04  d E =-.211224E-01  mag=     1.9997
       N       E                     dE             d eps       ncg     rms          rms(c)
DAV:   1    -0.230894479450E+04    0.75997E-02   -0.51522E+00  4400   0.207E+00    0.591E-01
RMM:   2    -0.230899005879E+04   -0.45264E-01   -0.38457E-01  5985   0.386E-01    0.112E+00
RMM:   3    -0.230898097522E+04    0.90836E-02   -0.34110E-02  5472   0.122E-01    0.327E-01
RMM:   4    -0.230898022624E+04    0.74898E-03   -0.40011E-03  4891   0.288E-02    0.180E-01
RMM:   5    -0.230898000624E+04    0.22000E-03   -0.13838E-03  5215   0.256E-02    0.102E-01
RMM:   6    -0.230897993819E+04    0.68055E-04   -0.49282E-04  4672   0.158E-02    0.388E-02
RMM:   7    -0.230897991900E+04    0.19190E-04   -0.51861E-05  2987   0.565E-03    0.201E-02
RMM:   8    -0.230897991671E+04    0.22874E-05   -0.18575E-05  2876   0.405E-03
  13 F= -.23294236E+04 E0= -.23294223E+04  d E =-.272408E-01  mag=     1.9999
       N       E                     dE             d eps       ncg     rms          rms(c)
DAV:   1    -0.230898685737E+04   -0.69384E-02   -0.52871E-01  4496   0.696E-01    0.174E-01
RMM:   2    -0.230898919911E+04   -0.23417E-02   -0.24730E-02  5638   0.118E-01    0.114E-01
RMM:   3    -0.230898936304E+04   -0.16393E-03   -0.18635E-03  5071   0.379E-02    0.155E-01
RMM:   4    -0.230898920478E+04    0.15827E-03   -0.32490E-04  3711   0.108E-02    0.668E-02
RMM:   5    -0.230898918216E+04    0.22612E-04   -0.14014E-04  3818   0.946E-03    0.417E-02
RMM:   6    -0.230898916491E+04    0.17257E-04   -0.67437E-05  3080   0.701E-03    0.122E-02
RMM:   7    -0.230898916507E+04   -0.16291E-06   -0.80162E-06  2830   0.424E-03
  14 F= -.23294329E+04 E0= -.23294316E+04  d E =-.931025E-02  mag=     2.0000
       N       E                     dE             d eps       ncg     rms          rms(c)
DAV:   1    -0.230899343778E+04   -0.42729E-02   -0.17476E+00  4432   0.124E+00    0.313E-01
RMM:   2    -0.230900461376E+04   -0.11176E-01   -0.10676E-01  5825   0.217E-01    0.419E-01
RMM:   3    -0.230900413330E+04    0.48046E-03   -0.90722E-03  5379   0.711E-02    0.266E-01
RMM:   4    -0.230900362707E+04    0.50623E-03   -0.11647E-03  4822   0.189E-02    0.108E-01
RMM:   5    -0.230900357571E+04    0.51363E-04   -0.40512E-04  4602   0.141E-02    0.744E-02
RMM:   6    -0.230900351893E+04    0.56773E-04   -0.27049E-04  4204   0.117E-02    0.205E-02
RMM:   7    -0.230900351735E+04    0.15873E-05   -0.20047E-05  2877   0.529E-03
  15 F= -.23294472E+04 E0= -.23294459E+04  d E =-.142573E-01  mag=     2.0000
       N       E                     dE             d eps       ncg     rms          rms(c)
DAV:   1    -0.230901016728E+04   -0.66483E-02   -0.80632E-01  4416   0.878E-01    0.210E-01
RMM:   2    -0.230901438111E+04   -0.42138E-02   -0.44439E-02  5675   0.151E-01    0.138E-01
RMM:   3    -0.230901463519E+04   -0.25408E-03   -0.32336E-03  5151   0.458E-02    0.170E-01
RMM:   4    -0.230901447839E+04    0.15680E-03   -0.54180E-04  4113   0.133E-02    0.995E-02
RMM:   5    -0.230901442243E+04    0.55957E-04   -0.21170E-04  3984   0.103E-02    0.456E-02
RMM:   6    -0.230901440257E+04    0.19861E-04   -0.87176E-05  3161   0.784E-03    0.148E-02
RMM:   7    -0.230901440065E+04    0.19204E-05   -0.10759E-05  2849   0.433E-03
  16 F= -.23294581E+04 E0= -.23294568E+04  d E =-.109395E-01  mag=     2.0000
       N       E                     dE             d eps       ncg     rms          rms(c)
DAV:   1    -0.230901996284E+04   -0.55603E-02   -0.11273E+00  4416   0.103E+00    0.246E-01
RMM:   2    -0.230902626982E+04   -0.63070E-02   -0.66620E-02  5684   0.177E-01    0.149E-01
RMM:   3    -0.230902647491E+04   -0.20509E-03   -0.46585E-03  5173   0.566E-02    0.117E-01
RMM:   4    -0.230902653894E+04   -0.64035E-04   -0.74083E-04  4558   0.146E-02    0.147E-01
RMM:   5    -0.230902641878E+04    0.12016E-03   -0.35223E-04  4109   0.124E-02    0.837E-02
RMM:   6    -0.230902636637E+04    0.52411E-04   -0.13802E-04  3513   0.891E-03    0.223E-02
RMM:   7    -0.230902636230E+04    0.40728E-05   -0.14393E-05  2859   0.503E-03
  17 F= -.23294701E+04 E0= -.23294688E+04  d E =-.119970E-01  mag=     2.0000
       N       E                     dE             d eps       ncg     rms          rms(c)
DAV:   1    -0.230903157417E+04   -0.52078E-02   -0.81489E-01  4464   0.896E-01    0.231E-01
RMM:   2    -0.230903755071E+04   -0.59765E-02   -0.59639E-02  5781   0.163E-01    0.259E-01
RMM:   3    -0.230903761525E+04   -0.64546E-04   -0.46110E-03  5252   0.491E-02    0.215E-01
RMM:   4    -0.230903729767E+04    0.31758E-03   -0.64118E-04  4359   0.140E-02    0.754E-02
RMM:   5    -0.230903726245E+04    0.35220E-04   -0.21965E-04  4098   0.108E-02    0.412E-02
RMM:   6    -0.230903725637E+04    0.60874E-05   -0.81038E-05  3121   0.751E-03
  18 F= -.23294811E+04 E0= -.23294798E+04  d E =-.109704E-01  mag=     2.0000
       N       E                     dE             d eps       ncg     rms          rms(c)
DAV:   1    -0.230904124980E+04   -0.39874E-02   -0.28196E-01  4544   0.527E-01    0.143E-01
RMM:   2    -0.230904359245E+04   -0.23427E-02   -0.24001E-02  5867   0.982E-02    0.130E-01
RMM:   3    -0.230904374658E+04   -0.15412E-03   -0.18289E-03  4787   0.299E-02    0.151E-01
RMM:   4    -0.230904358883E+04    0.15774E-03   -0.28010E-04  3270   0.921E-03    0.456E-02
RMM:   5    -0.230904357437E+04    0.14465E-04   -0.72783E-05  3091   0.641E-03    0.250E-02
RMM:   6    -0.230904357509E+04   -0.71795E-06   -0.30318E-05  2899   0.522E-03
  19 F= -.23294874E+04 E0= -.23294862E+04  d E =-.636539E-02  mag=     2.0000
       N       E                     dE             d eps       ncg     rms          rms(c)
DAV:   1    -0.230903929009E+04    0.42843E-02   -0.32186E+00  4432   0.178E+00    0.456E-01
RMM:   2    -0.230906381413E+04   -0.24524E-01   -0.25191E-01  5798   0.321E-01    0.413E-01
RMM:   3    -0.230906548181E+04   -0.16677E-02   -0.20753E-02  5470   0.102E-01    0.467E-01
RMM:   4    -0.230906400393E+04    0.14779E-02   -0.29695E-03  5405   0.287E-02    0.157E-01
RMM:   5    -0.230906385617E+04    0.14776E-03   -0.86324E-04  4776   0.187E-02    0.986E-02
RMM:   6    -0.230906382352E+04    0.32656E-04   -0.39651E-04  4577   0.133E-02    0.628E-02
RMM:   7    -0.230906379651E+04    0.27006E-04   -0.59006E-05  3051   0.696E-03    0.439E-02
RMM:   8    -0.230906377856E+04    0.17952E-04   -0.25209E-05  2906   0.407E-03    0.118E-02
RMM:   9    -0.230906378047E+04   -0.19126E-05   -0.57402E-06  2824   0.215E-03
  20 F= -.23295078E+04 E0= -.23295066E+04  d E =-.203164E-01  mag=     2.0000
       N       E                     dE             d eps       ncg     rms          rms(c)
DAV:   1    -0.230906326472E+04    0.51384E-03   -0.14738E+00  4448   0.119E+00    0.341E-01
RMM:   2    -0.230907841531E+04   -0.15151E-01   -0.14657E-01  5929   0.227E-01    0.470E-01
RMM:   3    -0.230907801939E+04    0.39592E-03   -0.12275E-02  5492   0.683E-02    0.277E-01
RMM:   4    -0.230907759051E+04    0.42889E-03   -0.15562E-03  4751   0.185E-02    0.107E-01
RMM:   5    -0.230907747800E+04    0.11250E-03   -0.36757E-04  4322   0.130E-02    0.476E-02
RMM:   6    -0.230907749899E+04   -0.20986E-04   -0.10398E-04  3468   0.896E-03    0.484E-02
RMM:   7    -0.230907748351E+04    0.15481E-04   -0.23585E-05  2885   0.508E-03    0.192E-02
RMM:   8    -0.230907747985E+04    0.36614E-05   -0.11585E-05  2839   0.290E-03
  21 F= -.23295216E+04 E0= -.23295204E+04  d E =-.137975E-01  mag=     2.0000
       N       E                     dE             d eps       ncg     rms          rms(c)
DAV:   1    -0.230906674224E+04    0.10741E-01   -0.30707E+00  4432   0.171E+00    0.484E-01
RMM:   2    -0.230909722538E+04   -0.30483E-01   -0.30097E-01  5903   0.323E-01    0.597E-01
RMM:   3    -0.230909754220E+04   -0.31683E-03   -0.26294E-02  5565   0.986E-02    0.434E-01
RMM:   4    -0.230909642513E+04    0.11171E-02   -0.32917E-03  5156   0.271E-02    0.157E-01
RMM:   5    -0.230909620971E+04    0.21542E-03   -0.80849E-04  4712   0.182E-02    0.790E-02
RMM:   6    -0.230909625639E+04   -0.46678E-04   -0.29612E-04  4403   0.123E-02    0.837E-02
RMM:   7    -0.230909621155E+04    0.44840E-04   -0.58064E-05  2999   0.654E-03    0.431E-02
RMM:   8    -0.230909619382E+04    0.17724E-04   -0.31081E-05  2892   0.409E-03    0.129E-02
RMM:   9    -0.230909619497E+04   -0.11423E-05   -0.54145E-06  2819   0.218E-03
  22 F= -.23295404E+04 E0= -.23295393E+04  d E =-.188748E-01  mag=     2.0000
       N       E                     dE             d eps       ncg     rms          rms(c)
DAV:   1    -0.230909584176E+04    0.35206E-03   -0.82304E-01  4512   0.860E-01    0.274E-01
RMM:   2    -0.230910634857E+04   -0.10507E-01   -0.10218E-01  5965   0.169E-01    0.366E-01
RMM:   3    -0.230910627915E+04    0.69423E-04   -0.85668E-03  5386   0.528E-02    0.243E-01
RMM:   4    -0.230910595061E+04    0.32854E-03   -0.11411E-03  4013   0.148E-02    0.866E-02
RMM:   5    -0.230910587848E+04    0.72124E-04   -0.20603E-04  3849   0.937E-03    0.416E-02
RMM:   6    -0.230910589496E+04   -0.16476E-04   -0.70872E-05  3110   0.753E-03    0.484E-02
RMM:   7    -0.230910587978E+04    0.15178E-04   -0.21689E-05  2858   0.520E-03    0.183E-02
RMM:   8    -0.230910587771E+04    0.20755E-05   -0.80106E-06  2844   0.234E-03
  23 F= -.23295502E+04 E0= -.23295491E+04  d E =-.975308E-02  mag=     2.0000
       N       E                     dE             d eps       ncg     rms          rms(c)
DAV:   1    -0.230902700910E+04    0.78871E-01   -0.10088E+01  4432   0.305E+00    0.908E-01
RMM:   2    -0.230914045193E+04   -0.11344E+00   -0.11128E+00  5962   0.589E-01    0.119E+00
RMM:   3    -0.230914151298E+04   -0.10611E-02   -0.11012E-01  5699   0.187E-01    0.789E-01
RMM:   4    -0.230913816578E+04    0.33472E-02   -0.12456E-02  5305   0.496E-02    0.306E-01
RMM:   5    -0.230913731799E+04    0.84779E-03   -0.25838E-03  4868   0.306E-02    0.151E-01
RMM:   6    -0.230913751259E+04   -0.19460E-03   -0.10349E-03  4826   0.216E-02    0.183E-01
RMM:   7    -0.230913732760E+04    0.18498E-03   -0.23675E-04  3649   0.121E-02    0.740E-02
RMM:   8    -0.230913728293E+04    0.44671E-04   -0.10774E-04  2978   0.569E-03    0.270E-02
RMM:   9    -0.230913727704E+04    0.58931E-05   -0.23162E-05  2871   0.339E-03
  24 F= -.23295820E+04 E0= -.23295810E+04  d E =-.317607E-01  mag=     2.0000
       N       E                     dE             d eps       ncg     rms          rms(c)
DAV:   1    -0.230911259108E+04    0.24692E-01   -0.15463E+00  4432   0.122E+00    0.330E-01
RMM:   2    -0.230912616282E+04   -0.13572E-01   -0.13652E-01  5811   0.225E-01    0.352E-01
RMM:   3    -0.230912664166E+04   -0.47884E-03   -0.11015E-02  5402   0.705E-02    0.333E-01
RMM:   4    -0.230912588640E+04    0.75526E-03   -0.14972E-03  5004   0.195E-02    0.112E-01
RMM:   5    -0.230912580806E+04    0.78344E-04   -0.42332E-04  4454   0.134E-02    0.662E-02
RMM:   6    -0.230912577550E+04    0.32562E-04   -0.21767E-04  3797   0.104E-02    0.271E-02
RMM:   7    -0.230912576627E+04    0.92318E-05   -0.21446E-05  2863   0.525E-03
  25 F= -.23295702E+04 E0= -.23295692E+04  d E =0.117038E-01  mag=     2.0000
       N       E                     dE             d eps       ncg     rms          rms(c)
DAV:   1    -0.230912582503E+04   -0.49534E-04   -0.55765E-01  4496   0.690E-01    0.222E-01
RMM:   2    -0.230913313078E+04   -0.73057E-02   -0.73308E-02  5972   0.136E-01    0.238E-01
RMM:   3    -0.230913352422E+04   -0.39344E-03   -0.64088E-03  5127   0.433E-02    0.221E-01
RMM:   4    -0.230913322141E+04    0.30281E-03   -0.85769E-04  3584   0.127E-02    0.723E-02
RMM:   5    -0.230913316957E+04    0.51835E-04   -0.15255E-04  3342   0.785E-03    0.395E-02
RMM:   6    -0.230913318104E+04   -0.11465E-04   -0.75124E-05  3135   0.642E-03    0.471E-02
RMM:   7    -0.230913316695E+04    0.14091E-04   -0.17734E-05  2858   0.480E-03    0.207E-02
RMM:   8    -0.230913316290E+04    0.40521E-05   -0.10450E-05  2801   0.258E-03
  26 F= -.23295777E+04 E0= -.23295768E+04  d E =-.748823E-02  mag=     2.0000
       N       E                     dE             d eps       ncg     rms          rms(c)
DAV:   1    -0.230913441471E+04   -0.12478E-02   -0.93756E-02  4560   0.273E-01    0.103E-01
RMM:   2    -0.230913603671E+04   -0.16220E-02   -0.15935E-02  5970   0.574E-02    0.126E-01
RMM:   3    -0.230913607981E+04   -0.43101E-04   -0.13721E-03  3643   0.194E-02    0.101E-01
RMM:   4    -0.230913601991E+04    0.59897E-04   -0.18573E-04  2979   0.649E-03    0.324E-02
RMM:   5    -0.230913600976E+04    0.10154E-04   -0.28264E-05  2897   0.344E-03    0.171E-02
RMM:   6    -0.230913601175E+04   -0.19872E-05   -0.98935E-06  2807   0.291E-03
  27 F= -.23295806E+04 E0= -.23295796E+04  d E =-.286049E-02  mag=     2.0000
       N       E                     dE             d eps       ncg     rms          rms(c)
DAV:   1    -0.230913124967E+04    0.47601E-02   -0.81886E-01  4448   0.814E-01    0.286E-01
RMM:   2    -0.230914413974E+04   -0.12890E-01   -0.12956E-01  6007   0.166E-01    0.298E-01
RMM:   3    -0.230914497649E+04   -0.83675E-03   -0.11624E-02  5344   0.570E-02    0.296E-01
RMM:   4    -0.230914444632E+04    0.53017E-03   -0.15326E-03  3786   0.158E-02    0.950E-02
RMM:   5    -0.230914436102E+04    0.85297E-04   -0.23382E-04  3465   0.879E-03    0.535E-02
RMM:   6    -0.230914438356E+04   -0.22536E-04   -0.11650E-04  3355   0.728E-03    0.679E-02
RMM:   7    -0.230914435338E+04    0.30180E-04   -0.33668E-05  2896   0.564E-03    0.225E-02
RMM:   8    -0.230914434931E+04    0.40695E-05   -0.19340E-05  2845   0.307E-03
  28 F= -.23295890E+04 E0= -.23295881E+04  d E =-.842362E-02  mag=     2.0000
       N       E                     dE             d eps       ncg     rms          rms(c)
DAV:   1    -0.230909910250E+04    0.45251E-01   -0.39232E+00  4432   0.178E+00    0.627E-01
RMM:   2    -0.230916131305E+04   -0.62211E-01   -0.61962E-01  6040   0.368E-01    0.725E-01
RMM:   3    -0.230916468680E+04   -0.33737E-02   -0.63041E-02  5727   0.125E-01    0.606E-01
RMM:   4    -0.230916260625E+04    0.20806E-02   -0.74140E-03  5202   0.338E-02    0.215E-01
RMM:   5    -0.230916218369E+04    0.42256E-03   -0.10662E-03  4540   0.170E-02    0.124E-01
RMM:   6    -0.230916228795E+04   -0.10426E-03   -0.63623E-04  4701   0.146E-02    0.159E-01
RMM:   7    -0.230916213192E+04    0.15603E-03   -0.14788E-04  3126   0.927E-03    0.556E-02
RMM:   8    -0.230916210811E+04    0.23813E-04   -0.86564E-05  2953   0.500E-03    0.194E-02
RMM:   9    -0.230916210823E+04   -0.12129E-06   -0.15287E-05  2829   0.317E-03
  29 F= -.23296070E+04 E0= -.23296061E+04  d E =-.179600E-01  mag=     2.0000
       N       E                     dE             d eps       ncg     rms          rms(c)
DAV:   1    -0.230908977181E+04    0.72336E-01   -0.55868E+00  4432   0.211E+00    0.751E-01
RMM:   2    -0.230918014441E+04   -0.90373E-01   -0.90423E-01  6075   0.438E-01    0.841E-01
RMM:   3    -0.230918581633E+04   -0.56719E-02   -0.94553E-02  5760   0.151E-01    0.725E-01
RMM:   4    -0.230918278241E+04    0.30339E-02   -0.10819E-02  5386   0.405E-02    0.262E-01
RMM:   5    -0.230918218530E+04    0.59711E-03   -0.15289E-03  4653   0.196E-02    0.159E-01
RMM:   6    -0.230918230957E+04   -0.12426E-03   -0.10228E-03  4921   0.174E-02    0.194E-01
RMM:   7    -0.230918208433E+04    0.22524E-03   -0.23328E-04  3374   0.111E-02    0.719E-02
RMM:   8    -0.230918204251E+04    0.41821E-04   -0.13194E-04  2983   0.597E-03    0.239E-02
RMM:   9    -0.230918204008E+04    0.24327E-05   -0.22281E-05  2846   0.350E-03
  30 F= -.23296272E+04 E0= -.23296265E+04  d E =-.202382E-01  mag=     2.0000
       N       E                     dE             d eps       ncg     rms          rms(c)
DAV:   1    -0.230916716738E+04    0.14875E-01   -0.14373E+00  4456   0.106E+00    0.384E-01
RMM:   2    -0.230919096474E+04   -0.23797E-01   -0.24036E-01  6055   0.219E-01    0.377E-01
RMM:   3    -0.230919279643E+04   -0.18317E-02   -0.22842E-02  5565   0.753E-02    0.386E-01
RMM:   4    -0.230919187713E+04    0.91930E-03   -0.29060E-03  4291   0.209E-02    0.130E-01
RMM:   5    -0.230919172271E+04    0.15442E-03   -0.40253E-04  3728   0.107E-02    0.798E-02
RMM:   6    -0.230919175324E+04   -0.30537E-04   -0.24324E-04  3959   0.916E-03    0.913E-02
RMM:   7    -0.230919169883E+04    0.54416E-04   -0.61162E-05  2984   0.657E-03    0.334E-02
RMM:   8    -0.230919168839E+04    0.10435E-04   -0.36407E-05  2878   0.395E-03    0.159E-02
RMM:   9    -0.230919168888E+04   -0.48662E-06   -0.52151E-06  2800   0.241E-03
  31 F= -.23296370E+04 E0= -.23296363E+04  d E =-.982138E-02  mag=     2.0000
       N       E                     dE             d eps       ncg     rms          rms(c)
DAV:   1    -0.230918799911E+04    0.36893E-02   -0.56692E-01  4544   0.661E-01    0.238E-01
RMM:   2    -0.230919725982E+04   -0.92607E-02   -0.94609E-02  6022   0.135E-01    0.199E-01
RMM:   3    -0.230919807495E+04   -0.81513E-03   -0.82631E-03  5185   0.468E-02    0.237E-01
RMM:   4    -0.230919771446E+04    0.36049E-03   -0.11231E-03  3495   0.131E-02    0.797E-02
RMM:   5    -0.230919765341E+04    0.61054E-04   -0.15951E-04  3160   0.728E-03    0.494E-02
RMM:   6    -0.230919766309E+04   -0.96845E-05   -0.95737E-05  3227   0.624E-03
  32 F= -.23296431E+04 E0= -.23296424E+04  d E =-.607827E-02  mag=     2.0000
       N       E                     dE             d eps       ncg     rms          rms(c)
DAV:   1    -0.230917023361E+04    0.27420E-01   -0.23420E+00  4432   0.135E+00    0.477E-01
RMM:   2    -0.230920719842E+04   -0.36965E-01   -0.37997E-01  6017   0.275E-01    0.377E-01
RMM:   3    -0.230921087995E+04   -0.36815E-02   -0.37485E-02  5684   0.885E-02    0.451E-01
RMM:   4    -0.230920966699E+04    0.12130E-02   -0.46054E-03  4635   0.253E-02    0.168E-01
RMM:   5    -0.230920943583E+04    0.23116E-03   -0.67096E-04  4016   0.131E-02    0.119E-01
RMM:   6    -0.230920945550E+04   -0.19663E-04   -0.49661E-04  4505   0.113E-02    0.120E-01
RMM:   7    -0.230920936897E+04    0.86524E-04   -0.12468E-04  3122   0.828E-03    0.608E-02
RMM:   8    -0.230920933250E+04    0.36477E-04   -0.77178E-05  2935   0.527E-03    0.211E-02
RMM:   9    -0.230920933385E+04   -0.13558E-05   -0.85958E-06  2835   0.297E-03
  33 F= -.23296551E+04 E0= -.23296545E+04  d E =-.119429E-01  mag=     2.0000
       N       E                     dE             d eps       ncg     rms          rms(c)
DAV:   1    -0.230920961307E+04   -0.28057E-03   -0.12635E-01  4624   0.306E-01    0.114E-01
RMM:   2    -0.230921181208E+04   -0.21990E-02   -0.22834E-02  6047   0.636E-02    0.714E-02
RMM:   3    -0.230921198408E+04   -0.17201E-03   -0.18647E-03  3660   0.214E-02    0.723E-02
RMM:   4    -0.230921196936E+04    0.14721E-04   -0.25388E-04  2971   0.646E-03    0.428E-02
RMM:   5    -0.230921195373E+04    0.15630E-04   -0.36495E-05  2846   0.394E-03    0.267E-02
RMM:   6    -0.230921195518E+04   -0.14536E-05   -0.24266E-05  2888   0.334E-03
  34 F= -.23296577E+04 E0= -.23296571E+04  d E =-.266116E-02  mag=     2.0000
       N       E                     dE             d eps       ncg     rms          rms(c)
DAV:   1    -0.230918586371E+04    0.26090E-01   -0.21058E+00  4440   0.127E+00    0.454E-01
RMM:   2    -0.230922041597E+04   -0.34552E-01   -0.35550E-01  6034   0.258E-01    0.345E-01
RMM:   3    -0.230922386391E+04   -0.34479E-02   -0.35268E-02  5576   0.908E-02    0.406E-01
RMM:   4    -0.230922290384E+04    0.96007E-03   -0.42463E-03  4619   0.238E-02    0.161E-01
RMM:   5    -0.230922268090E+04    0.22294E-03   -0.61223E-04  3833   0.126E-02    0.114E-01
RMM:   6    -0.230922268783E+04   -0.69262E-05   -0.45265E-04  4436   0.107E-02    0.111E-01
RMM:   7    -0.230922261146E+04    0.76371E-04   -0.11823E-04  3113   0.806E-03    0.563E-02
RMM:   8    -0.230922258002E+04    0.31438E-04   -0.69870E-05  2923   0.512E-03    0.226E-02
RMM:   9    -0.230922258074E+04   -0.71528E-06   -0.81099E-06  2828   0.295E-03
  35 F= -.23296686E+04 E0= -.23296681E+04  d E =-.108965E-01  mag=     2.0000
       N       E                     dE             d eps       ncg     rms          rms(c)
DAV:   1    -0.230919561407E+04    0.26966E-01   -0.20515E+00  4448   0.124E+00    0.451E-01
RMM:   2    -0.230923036997E+04   -0.34756E-01   -0.35809E-01  6092   0.256E-01    0.336E-01
RMM:   3    -0.230923382698E+04   -0.34570E-02   -0.35589E-02  5615   0.897E-02    0.386E-01
RMM:   4    -0.230923297777E+04    0.84921E-03   -0.42434E-03  4494   0.234E-02    0.160E-01
RMM:   5    -0.230923275673E+04    0.22104E-03   -0.59254E-04  3714   0.123E-02    0.114E-01
RMM:   6    -0.230923275521E+04    0.15194E-05   -0.44300E-04  4421   0.106E-02    0.108E-01
RMM:   7    -0.230923268194E+04    0.73269E-04   -0.11811E-04  3113   0.797E-03    0.545E-02
RMM:   8    -0.230923265256E+04    0.29379E-04   -0.66773E-05  2913   0.511E-03    0.227E-02
RMM:   9    -0.230923265295E+04   -0.38672E-06   -0.79829E-06  2828   0.297E-03
  36 F= -.23296790E+04 E0= -.23296785E+04  d E =-.103676E-01  mag=     2.0000
       N       E                     dE             d eps       ncg     rms          rms(c)
DAV:   1    -0.230920112852E+04    0.31524E-01   -0.23242E+00  4464   0.132E+00    0.477E-01
RMM:   2    -0.230924023772E+04   -0.39109E-01   -0.40380E-01  6101   0.272E-01    0.344E-01
RMM:   3    -0.230924415097E+04   -0.39132E-02   -0.40754E-02  5625   0.953E-02    0.386E-01
RMM:   4    -0.230924335348E+04    0.79749E-03   -0.47976E-03  4590   0.245E-02    0.172E-01
RMM:   5    -0.230924309963E+04    0.25385E-03   -0.66688E-04  3812   0.129E-02    0.124E-01
RMM:   6    -0.230924308134E+04    0.18293E-04   -0.51025E-04  4526   0.110E-02    0.111E-01
RMM:   7    -0.230924300447E+04    0.76868E-04   -0.14285E-04  3167   0.848E-03    0.595E-02
RMM:   8    -0.230924296891E+04    0.35558E-04   -0.75408E-05  2929   0.540E-03    0.233E-02
RMM:   9    -0.230924296917E+04   -0.26409E-06   -0.85506E-06  2827   0.311E-03
  37 F= -.23296897E+04 E0= -.23296892E+04  d E =-.106741E-01  mag=     2.0000
       N       E                     dE             d eps       ncg     rms          rms(c)
DAV:   1    -0.230909400647E+04    0.14896E+00   -0.92219E+00  4464   0.263E+00    0.951E-01
RMM:   2    -0.230925093947E+04   -0.15693E+00   -0.16207E+00  6151   0.551E-01    0.722E-01
RMM:   3    -0.230926715790E+04   -0.16218E-01   -0.17577E-01  5801   0.190E-01    0.760E-01
RMM:   4    -0.230926394481E+04    0.32131E-02   -0.18963E-02  5669   0.491E-02    0.343E-01
RMM:   5    -0.230926298083E+04    0.96398E-03   -0.25697E-03  4927   0.234E-02    0.258E-01
RMM:   6    -0.230926286663E+04    0.11420E-03   -0.22400E-03  5123   0.209E-02    0.228E-01
RMM:   7    -0.230926253837E+04    0.32827E-03   -0.64766E-04  4195   0.160E-02    0.119E-01
RMM:   8    -0.230926238815E+04    0.15022E-03   -0.29677E-04  3249   0.861E-03    0.416E-02
RMM:   9    -0.230926238673E+04    0.14199E-05   -0.33258E-05  2857   0.460E-03
  38 F= -.23297099E+04 E0= -.23297095E+04  d E =-.202228E-01  mag=     2.0000
       N       E                     dE             d eps       ncg     rms          rms(c)
DAV:   1    -0.230925335095E+04    0.90372E-02   -0.34474E-01  4560   0.518E-01    0.180E-01
RMM:   2    -0.230925880308E+04   -0.54521E-02   -0.55801E-02  6005   0.104E-01    0.140E-01
RMM:   3    -0.230925925276E+04   -0.44968E-03   -0.46541E-03  4652   0.351E-02    0.165E-01
RMM:   4    -0.230925905984E+04    0.19292E-03   -0.61998E-04  3278   0.100E-02    0.613E-02
RMM:   5    -0.230925902029E+04    0.39551E-04   -0.94509E-05  3073   0.599E-03    0.351E-02
RMM:   6    -0.230925901686E+04    0.34232E-05   -0.63110E-05  2983   0.578E-03
  39 F= -.23297063E+04 E0= -.23297059E+04  d E =0.355758E-02  mag=     2.0000
       N       E                     dE             d eps       ncg     rms          rms(c)
DAV:   1    -0.230925812311E+04    0.89717E-03   -0.19615E-01  4560   0.372E-01    0.136E-01
RMM:   2    -0.230926158781E+04   -0.34647E-02   -0.35787E-02  6248   0.795E-02    0.874E-02
RMM:   3    -0.230926187315E+04   -0.28534E-03   -0.32222E-03  4048   0.275E-02    0.795E-02
RMM:   4    -0.230926185717E+04    0.15983E-04   -0.39138E-04  3015   0.775E-03    0.543E-02
RMM:   5    -0.230926183212E+04    0.25049E-04   -0.65192E-05  2865   0.474E-03    0.366E-02
RMM:   6    -0.230926182515E+04    0.69633E-05   -0.44827E-05  3007   0.395E-03
  40 F= -.23297093E+04 E0= -.23297088E+04  d E =-.292681E-02  mag=     2.0000
       N       E                     dE             d eps       ncg     rms          rms(c)
DAV:   1    -0.230926207233E+04   -0.24021E-03   -0.26759E-03  4720   0.464E-02    0.251E-02
RMM:   2    -0.230926214551E+04   -0.73177E-04   -0.55469E-04  4115   0.117E-02    0.568E-02
RMM:   3    -0.230926212105E+04    0.24461E-04   -0.64019E-05  2812   0.563E-03    0.106E-02
RMM:   4    -0.230926212117E+04   -0.12631E-06   -0.87146E-06  2607   0.199E-03
  41 F= -.23297096E+04 E0= -.23297092E+04  d E =-.302052E-03  mag=     2.0000
       N       E                     dE             d eps       ncg     rms          rms(c)
DAV:   1    -0.230926232872E+04   -0.20768E-03   -0.62170E-02  4480   0.211E-01    0.789E-02
RMM:   2    -0.230926350046E+04   -0.11717E-02   -0.12172E-02  6116   0.472E-02    0.499E-02
RMM:   3    -0.230926358414E+04   -0.83673E-04   -0.99159E-04  3181   0.154E-02    0.397E-02
RMM:   4    -0.230926358707E+04   -0.29380E-05   -0.12878E-04  2900   0.479E-03    0.412E-02
RMM:   5    -0.230926357187E+04    0.15205E-04   -0.21971E-05  2831   0.307E-03    0.189E-02
RMM:   6    -0.230926357003E+04    0.18364E-05   -0.11817E-05  2805   0.248E-03
  42 F= -.23297111E+04 E0= -.23297107E+04  d E =-.151196E-02  mag=     2.0000
       N       E                     dE             d eps       ncg     rms          rms(c)
DAV:   1    -0.230926168270E+04    0.18892E-02   -0.24705E-01  4480   0.421E-01    0.156E-01
RMM:   2    -0.230926629519E+04   -0.46125E-02   -0.47986E-02  6141   0.920E-02    0.104E-01
RMM:   3    -0.230926667059E+04   -0.37540E-03   -0.40346E-03  4165   0.311E-02    0.100E-01
RMM:   4    -0.230926662979E+04    0.40802E-04   -0.51953E-04  3138   0.859E-03    0.719E-02
RMM:   5    -0.230926658042E+04    0.49374E-04   -0.73058E-05  2990   0.515E-03    0.341E-02
RMM:   6    -0.230926657541E+04    0.50084E-05   -0.43873E-05  2992   0.425E-03
  43 F= -.23297142E+04 E0= -.23297138E+04  d E =-.311284E-02  mag=     2.0000
       N       E                     dE             d eps       ncg     rms          rms(c)
DAV:   1    -0.230925897086E+04    0.76096E-02   -0.61557E-01  4464   0.664E-01    0.247E-01
RMM:   2    -0.230927042093E+04   -0.11450E-01   -0.11933E-01  6133   0.145E-01    0.163E-01
RMM:   3    -0.230927143887E+04   -0.10179E-02   -0.11152E-02  5093   0.503E-02    0.151E-01
RMM:   4    -0.230927137489E+04    0.63982E-04   -0.13341E-03  3498   0.124E-02    0.119E-01
RMM:   5    -0.230927124823E+04    0.12666E-03   -0.17551E-04  3154   0.748E-03    0.572E-02
RMM:   6    -0.230927123215E+04    0.16079E-04   -0.11691E-04  3349   0.613E-03    0.365E-02
RMM:   7    -0.230927122632E+04    0.58303E-05   -0.33409E-05  2917   0.500E-03
  44 F= -.23297190E+04 E0= -.23297186E+04  d E =-.483972E-02  mag=     2.0000
       N       E                     dE             d eps       ncg     rms          rms(c)
DAV:   1    -0.230926362117E+04    0.76110E-02   -0.61020E-01  4480   0.661E-01    0.245E-01
RMM:   2    -0.230927488441E+04   -0.11263E-01   -0.11752E-01  6225   0.145E-01    0.150E-01
RMM:   3    -0.230927584557E+04   -0.96116E-03   -0.11408E-02  5100   0.492E-02    0.103E-01
RMM:   4    -0.230927586748E+04   -0.21907E-04   -0.12716E-03  3272   0.111E-02    0.939E-02
RMM:   5    -0.230927582793E+04    0.39552E-04   -0.17979E-04  3214   0.694E-03    0.864E-02
RMM:   6    -0.230927577350E+04    0.54421E-04   -0.10503E-04  3098   0.629E-03    0.335E-02
RMM:   7    -0.230927577284E+04    0.66060E-06   -0.41189E-05  2912   0.503E-03
  45 F= -.23297238E+04 E0= -.23297234E+04  d E =-.474713E-02  mag=     2.0000
       N       E                     dE             d eps       ncg     rms          rms(c)
DAV:   1    -0.230926328270E+04    0.12491E-01   -0.89553E-01  4472   0.802E-01    0.297E-01
RMM:   2    -0.230927978678E+04   -0.16504E-01   -0.17223E-01  6204   0.176E-01    0.183E-01
RMM:   3    -0.230928124633E+04   -0.14595E-02   -0.17297E-02  5327   0.618E-02    0.128E-01
RMM:   4    -0.230928128887E+04   -0.42542E-04   -0.18957E-03  3552   0.134E-02    0.121E-01
RMM:   5    -0.230928120225E+04    0.86622E-04   -0.25722E-04  3309   0.824E-03    0.973E-02
RMM:   6    -0.230928113292E+04    0.69330E-04   -0.15404E-04  3249   0.732E-03    0.415E-02
RMM:   7    -0.230928113153E+04    0.13887E-05   -0.64297E-05  2993   0.596E-03
  46 F= -.23297294E+04 E0= -.23297290E+04  d E =-.559774E-02  mag=     2.0000
       N       E                     dE             d eps       ncg     rms          rms(c)
DAV:   1    -0.230928162198E+04   -0.48907E-03   -0.20382E-02  4608   0.144E-01    0.465E-02
RMM:   2    -0.230928184931E+04   -0.22733E-03   -0.24327E-03  5914   0.290E-02    0.266E-02
RMM:   3    -0.230928186465E+04   -0.15343E-04   -0.22530E-04  2953   0.104E-02    0.197E-02
RMM:   4    -0.230928186534E+04   -0.68682E-06   -0.31669E-05  2865   0.353E-03
  47 F= -.23297301E+04 E0= -.23297298E+04  d E =-.722846E-03  mag=     2.0000
       N       E                     dE             d eps       ncg     rms          rms(c)
DAV:   1    -0.230924632877E+04    0.35536E-01   -0.21737E+00  4472   0.125E+00    0.461E-01
RMM:   2    -0.230928652750E+04   -0.40199E-01   -0.41932E-01  6219   0.276E-01    0.287E-01
RMM:   3    -0.230929028321E+04   -0.37557E-02   -0.45041E-02  5613   0.916E-02    0.203E-01
RMM:   4    -0.230929031132E+04   -0.28105E-04   -0.46471E-03  4178   0.204E-02    0.164E-01
RMM:   5    -0.230929025079E+04    0.60533E-04   -0.62723E-04  3884   0.116E-02    0.178E-01
RMM:   6    -0.230929000434E+04    0.24645E-03   -0.44385E-04  3924   0.112E-02    0.656E-02
RMM:   7    -0.230929000069E+04    0.36432E-05   -0.20234E-04  3355   0.891E-03    0.617E-02
RMM:   8    -0.230928996046E+04    0.40234E-04   -0.61196E-05  3013   0.595E-03    0.157E-02
RMM:   9    -0.230928996202E+04   -0.15598E-05   -0.99297E-06  2839   0.290E-03
  48 F= -.23297386E+04 E0= -.23297383E+04  d E =-.847506E-02  mag=     2.0000
       N       E                     dE             d eps       ncg     rms          rms(c)
DAV:   1    -0.230918116326E+04    0.10880E+00   -0.59908E+00  4464   0.208E+00    0.769E-01
RMM:   2    -0.230929236445E+04   -0.11120E+00   -0.11632E+00  6246   0.461E-01    0.483E-01
RMM:   3    -0.230930373171E+04   -0.11367E-01   -0.13523E-01  5733   0.154E-01    0.355E-01
RMM:   4    -0.230930396702E+04   -0.23531E-03   -0.13252E-02  5302   0.345E-02    0.313E-01
RMM:   5    -0.230930337290E+04    0.59411E-03   -0.16256E-03  4580   0.175E-02    0.246E-01
RMM:   6    -0.230930287846E+04    0.49444E-03   -0.10996E-03  4723   0.163E-02    0.115E-01
RMM:   7    -0.230930285641E+04    0.22051E-04   -0.62720E-04  4250   0.146E-02    0.105E-01
RMM:   8    -0.230930273928E+04    0.11713E-03   -0.16562E-04  3270   0.791E-03    0.273E-02
RMM:   9    -0.230930274329E+04   -0.40113E-05   -0.25041E-05  2864   0.411E-03
  49 F= -.23297520E+04 E0= -.23297518E+04  d E =-.134817E-01  mag=     2.0000
       N       E                     dE             d eps       ncg     rms          rms(c)
DAV:   1    -0.230929747608E+04    0.52632E-02   -0.17393E-01  4480   0.362E-01    0.126E-01
RMM:   2    -0.230930051152E+04   -0.30354E-02   -0.31227E-02  6131   0.769E-02    0.934E-02
RMM:   3    -0.230930074423E+04   -0.23271E-03   -0.26172E-03  3962   0.262E-02    0.840E-02
RMM:   4    -0.230930071722E+04    0.27009E-04   -0.33760E-04  3062   0.768E-03    0.541E-02
RMM:   5    -0.230930068654E+04    0.30678E-04   -0.55112E-05  2952   0.484E-03    0.297E-02
RMM:   6    -0.230930068006E+04    0.64868E-05   -0.41381E-05  2967   0.426E-03
  50 F= -.23297499E+04 E0= -.23297496E+04  d E =0.215041E-02  mag=     2.0000
       N       E                     dE             d eps       ncg     rms          rms(c)
DAV:   1    -0.230930003717E+04    0.64938E-03   -0.11419E-01  4480   0.281E-01    0.107E-01
RMM:   2    -0.230930227576E+04   -0.22386E-02   -0.23225E-02  6277   0.638E-02    0.658E-02
RMM:   3    -0.230930243588E+04   -0.16012E-03   -0.18831E-03  3517   0.204E-02    0.500E-02
RMM:   4    -0.230930244114E+04   -0.52580E-05   -0.24003E-04  2956   0.615E-03    0.513E-02
RMM:   5    -0.230930241459E+04    0.26548E-04   -0.36194E-05  2903   0.380E-03    0.239E-02
RMM:   6    -0.230930240996E+04    0.46358E-05   -0.21962E-05  2854   0.308E-03
  51 F= -.23297517E+04 E0= -.23297515E+04  d E =-.182276E-02  mag=     2.0000
       N       E                     dE             d eps       ncg     rms          rms(c)
DAV:   1    -0.230930253494E+04   -0.12035E-03   -0.11420E-03  4728   0.335E-02    0.133E-02
RMM:   2    -0.230930255345E+04   -0.18505E-04   -0.19090E-04  3446   0.761E-03    0.150E-02
RMM:   3    -0.230930255396E+04   -0.51473E-06   -0.19476E-05  2623   0.422E-03
  52 F= -.23297519E+04 E0= -.23297516E+04  d E =-.151764E-03  mag=     2.0000
       N       E                     dE             d eps       ncg     rms          rms(c)
DAV:   1    -0.230930280866E+04   -0.25521E-03   -0.19644E-02  4480   0.122E-01    0.464E-02
RMM:   2    -0.230930319624E+04   -0.38758E-03   -0.40174E-03  5888   0.273E-02    0.288E-02
RMM:   3    -0.230930322135E+04   -0.25106E-04   -0.30460E-04  2935   0.949E-03    0.228E-02
RMM:   4    -0.230930322225E+04   -0.90044E-06   -0.44214E-05  2845   0.308E-03
  53 F= -.23297526E+04 E0= -.23297523E+04  d E =-.701798E-03  mag=     2.0000
       N       E                     dE             d eps       ncg     rms          rms(c)
DAV:   1    -0.230930277512E+04    0.44623E-03   -0.91889E-02  4432   0.257E-01    0.966E-02
RMM:   2    -0.230930459667E+04   -0.18216E-02   -0.18878E-02  6137   0.568E-02    0.592E-02
RMM:   3    -0.230930471490E+04   -0.11823E-03   -0.14631E-03  3426   0.185E-02    0.404E-02
RMM:   4    -0.230930471804E+04   -0.31414E-05   -0.19511E-04  2933   0.537E-03    0.406E-02
RMM:   5    -0.230930470816E+04    0.98870E-05   -0.33439E-05  2844   0.364E-03
  54 F= -.23297541E+04 E0= -.23297539E+04  d E =-.156358E-02  mag=     2.0000
       N       E                     dE             d eps       ncg     rms          rms(c)
DAV:   1    -0.230930472274E+04   -0.46991E-05   -0.48773E-02  4448   0.190E-01    0.732E-02
RMM:   2    -0.230930567892E+04   -0.95617E-03   -0.99311E-03  6086   0.424E-02    0.566E-02
RMM:   3    -0.230930578295E+04   -0.10403E-03   -0.10441E-03  3193   0.151E-02    0.610E-02
RMM:   4    -0.230930575572E+04    0.27225E-04   -0.11411E-04  2895   0.504E-03    0.301E-02
RMM:   5    -0.230930574797E+04    0.77522E-05   -0.17494E-05  2769   0.267E-03
  55 F= -.23297552E+04 E0= -.23297550E+04  d E =-.110539E-02  mag=     2.0000
       N       E                     dE             d eps       ncg     rms          rms(c)
DAV:   1    -0.230930522318E+04    0.53254E-03   -0.92954E-02  4416   0.258E-01    0.990E-02
RMM:   2    -0.230930706870E+04   -0.18455E-02   -0.19221E-02  6165   0.577E-02    0.629E-02
RMM:   3    -0.230930721922E+04   -0.15052E-03   -0.17067E-03  3393   0.191E-02    0.520E-02
RMM:   4    -0.230930721826E+04    0.96099E-06   -0.20748E-04  2935   0.571E-03    0.474E-02
RMM:   5    -0.230930719838E+04    0.19874E-04   -0.32593E-05  2867   0.357E-03    0.242E-02
RMM:   6    -0.230930719432E+04    0.40649E-05   -0.19253E-05  2859   0.291E-03
  56 F= -.23297568E+04 E0= -.23297566E+04  d E =-.154456E-02  mag=     2.0000
       N       E                     dE             d eps       ncg     rms          rms(c)
DAV:   1    -0.230930397490E+04    0.32235E-02   -0.26817E-01  4448   0.439E-01    0.167E-01
RMM:   2    -0.230930927562E+04   -0.53007E-02   -0.55332E-02  6194   0.982E-02    0.104E-01
RMM:   3    -0.230930970529E+04   -0.42967E-03   -0.48635E-03  4264   0.325E-02    0.864E-02
RMM:   4    -0.230930970159E+04    0.36935E-05   -0.59761E-04  3129   0.854E-03    0.780E-02
RMM:   5    -0.230930964379E+04    0.57807E-04   -0.75192E-05  2994   0.521E-03    0.375E-02
RMM:   6    -0.230930963431E+04    0.94772E-05   -0.48351E-05  3027   0.421E-03
  57 F= -.23297594E+04 E0= -.23297592E+04  d E =-.258640E-02  mag=     2.0000
       N       E                     dE             d eps       ncg     rms          rms(c)
DAV:   1    -0.230930536978E+04    0.42740E-02   -0.33160E-01  4440   0.488E-01    0.185E-01
RMM:   2    -0.230931185410E+04   -0.64843E-02   -0.67695E-02  6130   0.109E-01    0.119E-01
RMM:   3    -0.230931240761E+04   -0.55352E-03   -0.60923E-03  4542   0.376E-02    0.104E-01
RMM:   4    -0.230931238384E+04    0.23774E-04   -0.74345E-04  3187   0.947E-03    0.852E-02
RMM:   5    -0.230931231442E+04    0.69420E-04   -0.93292E-05  3024   0.578E-03    0.413E-02
RMM:   6    -0.230931230372E+04    0.10698E-04   -0.60683E-05  3110   0.464E-03    0.227E-02
RMM:   7    -0.230931230136E+04    0.23556E-05   -0.18131E-05  2858   0.404E-03
  58 F= -.23297622E+04 E0= -.23297620E+04  d E =-.284067E-02  mag=     2.0000
       N       E                     dE             d eps       ncg     rms          rms(c)
DAV:   1    -0.230930701957E+04    0.52841E-02   -0.38708E-01  4440   0.526E-01    0.199E-01
RMM:   2    -0.230931458192E+04   -0.75623E-02   -0.78965E-02  6233   0.118E-01    0.119E-01
RMM:   3    -0.230931520978E+04   -0.62786E-03   -0.74836E-03  4682   0.388E-02    0.800E-02
RMM:   4    -0.230931521681E+04   -0.70275E-05   -0.83945E-04  3116   0.904E-03    0.666E-02
RMM:   5    -0.230931520496E+04    0.11845E-04   -0.11194E-04  3113   0.554E-03    0.710E-02
RMM:   6    -0.230931516386E+04    0.41098E-04   -0.69110E-05  2968   0.527E-03    0.247E-02
RMM:   7    -0.230931516256E+04    0.12998E-05   -0.29549E-05  2877   0.423E-03
  59 F= -.23297653E+04 E0= -.23297651E+04  d E =-.304608E-02  mag=     2.0000
       N       E                     dE             d eps       ncg     rms          rms(c)
DAV:   1    -0.230931350210E+04    0.16618E-02   -0.16503E-01  4448   0.344E-01    0.131E-01
RMM:   2    -0.230931674062E+04   -0.32385E-02   -0.33851E-02  6237   0.775E-02    0.777E-02
[...]
RMM:   2    -0.230939615975E+04   -0.22457E-03   -0.23716E-03  5392   0.222E-02    0.205E-02
RMM:   3    -0.230939617315E+04   -0.13399E-04   -0.19409E-04  2883   0.709E-03    0.118E-02
RMM:   4    -0.230939617307E+04    0.82000E-07   -0.19975E-05  2674   0.220E-03
 159 F= -.23298530E+04 E0= -.23298530E+04  d E =-.149034E-03  mag=     2.0000
       N       E                     dE             d eps       ncg     rms          rms(c)
DAV:   1    -0.230939474033E+04    0.14328E-02   -0.77419E-02  4400   0.257E-01    0.799E-02
RMM:   2    -0.230939574116E+04   -0.10008E-02   -0.10602E-02  6197   0.571E-02    0.428E-02
RMM:   3    -0.230939579296E+04   -0.51805E-04   -0.86337E-04  3325   0.157E-02    0.279E-02
RMM:   4    -0.230939579216E+04    0.80450E-06   -0.94120E-05  2909   0.492E-03
 160 F= -.23298527E+04 E0= -.23298527E+04  d E =0.330670E-03  mag=     2.0000
       N       E                     dE             d eps       ncg     rms          rms(c)
DAV:   1    -0.230939575654E+04    0.36420E-04   -0.50552E-03  4576   0.604E-02    0.347E-02
RMM:   2    -0.230939590544E+04   -0.14890E-03   -0.11326E-03  4855   0.153E-02    0.698E-02
RMM:   3    -0.230939585826E+04    0.47174E-04   -0.13572E-04  3004   0.779E-03    0.133E-02
RMM:   4    -0.230939585775E+04    0.51213E-06   -0.14888E-05  2721   0.237E-03
 161 F= -.23298528E+04 E0= -.23298528E+04  d E =-.924701E-04  mag=     2.0000
       N       E                     dE             d eps       ncg     rms          rms(c)
DAV:   1    -0.230939554049E+04    0.31777E-03   -0.24637E-02  4408   0.121E-01    0.520E-02
RMM:   2    -0.230939605809E+04   -0.51760E-03   -0.54261E-03  5924   0.325E-02    0.297E-02
RMM:   3    -0.230939609704E+04   -0.38953E-04   -0.49897E-04  2960   0.100E-02    0.208E-02
RMM:   4    -0.230939609934E+04   -0.22965E-05   -0.58682E-05  2806   0.308E-03
 162 F= -.23298530E+04 E0= -.23298530E+04  d E =-.266554E-03  mag=     2.0000
       N       E                     dE             d eps       ncg     rms          rms(c)
DAV:   1    -0.230939601504E+04    0.82000E-04   -0.86730E-03  4312   0.703E-02    0.343E-02
RMM:   2    -0.230939621260E+04   -0.19756E-03   -0.19996E-03  5007   0.191E-02    0.328E-02
RMM:   3    -0.230939622765E+04   -0.15045E-04   -0.21710E-04  2871   0.746E-03    0.289E-02
RMM:   4    -0.230939622056E+04    0.70908E-05   -0.23087E-05  2631   0.253E-03
 163 F= -.23298532E+04 E0= -.23298532E+04  d E =-.152368E-03  mag=     2.0000
       N       E                     dE             d eps       ncg     rms          rms(c)
DAV:   1    -0.230939623446E+04   -0.68118E-05   -0.87579E-04  4248   0.232E-02    0.122E-02
RMM:   2    -0.230939625458E+04   -0.20117E-04   -0.20634E-04  3372   0.623E-03    0.882E-03
RMM:   3    -0.230939625601E+04   -0.14308E-05   -0.19995E-05  2362   0.338E-03
 164 F= -.23298532E+04 E0= -.23298532E+04  d E =-.469437E-04  mag=     2.0000
       N       E                     dE             d eps       ncg     rms          rms(c)
DAV:   1    -0.230939619866E+04    0.55913E-04   -0.60802E-03  4288   0.590E-02    0.272E-02
RMM:   2    -0.230939634315E+04   -0.14449E-03   -0.14888E-03  4690   0.159E-02    0.192E-02
RMM:   3    -0.230939635398E+04   -0.10833E-04   -0.12087E-04  2762   0.562E-03    0.190E-02
RMM:   4    -0.230939635188E+04    0.20987E-05   -0.16262E-05  2373   0.224E-03
 165 F= -.23298533E+04 E0= -.23298533E+04  d E =-.120977E-03  mag=     2.0000
       N       E                     dE             d eps       ncg     rms          rms(c)
DAV:   1    -0.230939632125E+04    0.32734E-04   -0.65493E-04  4320   0.267E-02    0.890E-03
RMM:   2    -0.230939632446E+04   -0.32095E-05   -0.37390E-05  2907   0.556E-03
 166 F= -.23298533E+04 E0= -.23298533E+04  d E =0.271844E-04  mag=     2.0000
       N       E                     dE             d eps       ncg     rms          rms(c)
DAV:   1    -0.230939421074E+04    0.21105E-02   -0.74955E-02  4400   0.207E-01    0.964E-02
RMM:   2    -0.230939594693E+04   -0.17362E-02   -0.18048E-02  6295   0.564E-02    0.637E-02
RMM:   3    -0.230939608575E+04   -0.13882E-03   -0.15923E-03  3480   0.181E-02    0.630E-02
RMM:   4    -0.230939605942E+04    0.26332E-04   -0.20661E-04  2938   0.604E-03    0.322E-02
RMM:   5    -0.230939604717E+04    0.12253E-04   -0.21917E-05  2793   0.277E-03    0.175E-02
RMM:   6    -0.230939604495E+04    0.22198E-05   -0.16656E-05  2806   0.249E-03
 167 F= -.23298529E+04 E0= -.23298529E+04  d E =0.402977E-03  mag=     2.0000
       N       E                     dE             d eps       ncg     rms          rms(c)
DAV:   1    -0.230939583228E+04    0.21489E-03   -0.64639E-03  4376   0.686E-02    0.282E-02
RMM:   2    -0.230939595712E+04   -0.12484E-03   -0.13263E-03  5153   0.173E-02    0.160E-02
RMM:   3    -0.230939596639E+04   -0.92721E-05   -0.12063E-04  2817   0.629E-03    0.125E-02
RMM:   4    -0.230939596673E+04   -0.34311E-06   -0.15454E-05  2562   0.206E-03
 168 F= -.23298528E+04 E0= -.23298528E+04  d E =0.109387E-03  mag=     2.0000
       N       E                     dE             d eps       ncg     rms          rms(c)
DAV:   1    -0.230939576268E+04    0.20371E-03   -0.16289E-02  4360   0.979E-02    0.435E-02
RMM:   2    -0.230939612485E+04   -0.36218E-03   -0.38081E-03  5527   0.262E-02    0.287E-02
RMM:   3    -0.230939615739E+04   -0.32542E-04   -0.34829E-04  2918   0.866E-03    0.299E-02
RMM:   4    -0.230939615012E+04    0.72744E-05   -0.40999E-05  2601   0.316E-03
 169 F= -.23298530E+04 E0= -.23298530E+04  d E =-.215185E-03  mag=     2.0000
       N       E                     dE             d eps       ncg     rms          rms(c)
DAV:   1    -0.230939613097E+04    0.26424E-04   -0.90925E-04  4176   0.304E-02    0.124E-02
RMM:   2    -0.230939614254E+04   -0.11568E-04   -0.13445E-04  3395   0.702E-03    0.805E-03
RMM:   3    -0.230939614393E+04   -0.13873E-05   -0.13535E-05  2326   0.374E-03
 170 F= -.23298530E+04 E0= -.23298530E+04  d E =0.247972E-04  mag=     2.0000
       N       E                     dE             d eps       ncg     rms          rms(c)
DAV:   1    -0.230939616555E+04   -0.23012E-04   -0.71060E-04  4048   0.203E-02    0.901E-03
RMM:   2    -0.230939618069E+04   -0.15134E-04   -0.16197E-04  3220   0.535E-03    0.515E-03
RMM:   3    -0.230939618183E+04   -0.11399E-05   -0.15752E-05  2177   0.310E-03
 171 F= -.23298530E+04 E0= -.23298530E+04  d E =-.436503E-04  mag=     2.0000
       N       E                     dE             d eps       ncg     rms          rms(c)
DAV:   1    -0.230939621217E+04   -0.31487E-04   -0.24874E-03  4320   0.446E-02    0.158E-02
RMM:   2    -0.230939625706E+04   -0.44892E-04   -0.45849E-04  4046   0.106E-02    0.146E-02
RMM:   3    -0.230939625994E+04   -0.28714E-05   -0.41934E-05  2496   0.461E-03
 172 F= -.23298531E+04 E0= -.23298531E+04  d E =-.788582E-04  mag=     2.0000
       N       E                     dE             d eps       ncg     rms          rms(c)
DAV:   1    -0.230939609022E+04    0.16684E-03   -0.16254E-02  4408   0.105E-01    0.412E-02
RMM:   2    -0.230939642924E+04   -0.33902E-03   -0.35108E-03  5711   0.261E-02    0.273E-02
RMM:   3    -0.230939645163E+04   -0.22396E-04   -0.27976E-04  2920   0.832E-03    0.211E-02
RMM:   4    -0.230939645131E+04    0.32180E-06   -0.33634E-05  2761   0.290E-03
 173 F= -.23298533E+04 E0= -.23298533E+04  d E =-.205982E-03  mag=     2.0000
       N       E                     dE             d eps       ncg     rms          rms(c)
DAV:   1    -0.230939630867E+04    0.14296E-03   -0.17565E-02  4400   0.117E-01    0.416E-02
RMM:   2    -0.230939662819E+04   -0.31952E-03   -0.32848E-03  5887   0.273E-02    0.349E-02
RMM:   3    -0.230939665477E+04   -0.26584E-04   -0.32246E-04  2940   0.907E-03    0.344E-02
RMM:   4    -0.230939664454E+04    0.10228E-04   -0.35968E-05  2802   0.328E-03    0.159E-02
RMM:   5    -0.230939664163E+04    0.29170E-05   -0.72127E-06  2591   0.186E-03
 174 F= -.23298535E+04 E0= -.23298535E+04  d E =-.201442E-03  mag=     2.0000
       N       E                     dE             d eps       ncg     rms          rms(c)
DAV:   1    -0.230939661106E+04    0.33482E-04   -0.74862E-03  4360   0.729E-02    0.288E-02
RMM:   2    -0.230939676006E+04   -0.14899E-03   -0.15631E-03  5123   0.179E-02    0.199E-02
RMM:   3    -0.230939677338E+04   -0.13320E-04   -0.14286E-04  2832   0.631E-03    0.194E-02
RMM:   4    -0.230939677061E+04    0.27671E-05   -0.17024E-05  2574   0.231E-03
 175 F= -.23298537E+04 E0= -.23298537E+04  d E =-.136057E-03  mag=     2.0000
       N       E                     dE             d eps       ncg     rms          rms(c)
DAV:   1    -0.230939465844E+04    0.21149E-02   -0.82008E-02  4400   0.239E-01    0.906E-02
RMM:   2    -0.230939625565E+04   -0.15972E-02   -0.16746E-02  6261   0.581E-02    0.507E-02
RMM:   3    -0.230939636171E+04   -0.10606E-03   -0.13174E-03  3313   0.167E-02    0.354E-02
RMM:   4    -0.230939636427E+04   -0.25608E-05   -0.14411E-04  2912   0.510E-03    0.352E-02
RMM:   5    -0.230939635153E+04    0.12737E-04   -0.23725E-05  2794   0.318E-03    0.189E-02
RMM:   6    -0.230939634771E+04    0.38188E-05   -0.13511E-05  2768   0.244E-03
 176 F= -.23298532E+04 E0= -.23298532E+04  d E =0.449896E-03  mag=     2.0000
       N       E                     dE             d eps       ncg     rms          rms(c)
DAV:   1    -0.230939635313E+04   -0.15936E-05   -0.43669E-03  4320   0.563E-02    0.209E-02
RMM:   2    -0.230939644168E+04   -0.88557E-04   -0.91562E-04  4638   0.141E-02    0.156E-02
RMM:   3    -0.230939644920E+04   -0.75189E-05   -0.85451E-05  2544   0.563E-03
 177 F= -.23298533E+04 E0= -.23298533E+04  d E =-.106701E-03  mag=     2.0000
       N       E                     dE             d eps       ncg     rms          rms(c)
DAV:   1    -0.230939638479E+04    0.56889E-04   -0.10816E-02  4360   0.910E-02    0.320E-02
RMM:   2    -0.230939659888E+04   -0.21409E-03   -0.21925E-03  5441   0.215E-02    0.246E-02
RMM:   3    -0.230939661352E+04   -0.14645E-04   -0.19295E-04  2860   0.722E-03    0.186E-02
RMM:   4    -0.230939661223E+04    0.12960E-05   -0.23302E-05  2559   0.253E-03
 178 F= -.23298535E+04 E0= -.23298535E+04  d E =-.160709E-03  mag=     2.0000
       N       E                     dE             d eps       ncg     rms          rms(c)
DAV:   1    -0.230939659929E+04    0.14231E-04   -0.66978E-05  4352   0.773E-03    0.859E-03
RMM:   2    -0.230939660150E+04   -0.22070E-05   -0.14222E-05  2405   0.257E-03
 179 F= -.23298535E+04 E0= -.23298535E+04  d E =0.802892E-05  mag=     2.0000
       N       E                     dE             d eps       ncg     rms          rms(c)
DAV:   1    -0.230939660770E+04   -0.84079E-05   -0.46354E-05  3024   0.587E-03    0.536E-03
RMM:   2    -0.230939660970E+04   -0.19962E-05   -0.90554E-06  2235   0.265E-03
 180 F= -.23298535E+04 E0= -.23298535E+04  d E =-.853749E-05  mag=     2.0000
       N       E                     dE             d eps       ncg     rms          rms(c)
DAV:   1    -0.230939661077E+04   -0.30656E-05   -0.16681E-04  4032   0.109E-02    0.514E-03
RMM:   2    -0.230939661460E+04   -0.38347E-05   -0.39716E-05  2501   0.331E-03
 181 F= -.23298535E+04 E0= -.23298535E+04  d E =-.137179E-04  mag=     2.0000
       N       E                     dE             d eps       ncg     rms          rms(c)
DAV:   1    -0.230939655257E+04    0.58199E-04   -0.69369E-03  4368   0.688E-02    0.289E-02
RMM:   2    -0.230939670899E+04   -0.15642E-03   -0.16055E-03  5157   0.184E-02    0.254E-02
RMM:   3    -0.230939672344E+04   -0.14448E-04   -0.17663E-04  2862   0.723E-03    0.219E-02
RMM:   4    -0.230939671981E+04    0.36314E-05   -0.18375E-05  2594   0.254E-03
 182 F= -.23298536E+04 E0= -.23298536E+04  d E =-.115826E-03  mag=     2.0000
       N       E                     dE             d eps       ncg     rms          rms(c)
DAV:   1    -0.230939674019E+04   -0.16756E-04   -0.15460E-03  4256   0.336E-02    0.143E-02
RMM:   2    -0.230939677454E+04   -0.34344E-04   -0.34481E-04  3748   0.897E-03    0.142E-02
RMM:   3    -0.230939677623E+04   -0.16893E-05   -0.31591E-05  2431   0.444E-03
 183 F= -.23298537E+04 E0= -.23298537E+04  d E =-.613016E-04  mag=     2.0000
       N       E                     dE             d eps       ncg     rms          rms(c)
DAV:   1    -0.230939679538E+04   -0.20844E-04   -0.67831E-04  4224   0.253E-02    0.987E-03
RMM:   2    -0.230939680632E+04   -0.10937E-04   -0.11350E-04  3221   0.624E-03    0.761E-03
RMM:   3    -0.230939680705E+04   -0.73208E-06   -0.13315E-05  2312   0.374E-03
 184 F= -.23298537E+04 E0= -.23298537E+04  d E =-.354422E-04  mag=     2.0000
       N       E                     dE             d eps       ncg     rms          rms(c)
DAV:   1    -0.230939675170E+04    0.54621E-04   -0.13644E-03  4352   0.320E-02    0.154E-02
RMM:   2    -0.230939678324E+04   -0.31540E-04   -0.30584E-04  3735   0.875E-03    0.201E-02
RMM:   3    -0.230939678153E+04    0.17033E-05   -0.28340E-05  2428   0.443E-03
 185 F= -.23298537E+04 E0= -.23298537E+04  d E =0.392277E-04  mag=     2.0000
       N       E                     dE             d eps       ncg     rms          rms(c)
DAV:   1    -0.230939679851E+04   -0.15276E-04   -0.31818E-03  4320   0.501E-02    0.195E-02
RMM:   2    -0.230939686120E+04   -0.62682E-04   -0.66412E-04  4386   0.123E-02    0.148E-02
RMM:   3    -0.230939686750E+04   -0.63033E-05   -0.67429E-05  2633   0.553E-03
 186 F= -.23298537E+04 E0= -.23298537E+04  d E =-.825270E-04  mag=     2.0000
       N       E                     dE             d eps       ncg     rms          rms(c)
DAV:   1    -0.230939689361E+04   -0.32414E-04   -0.13136E-03  4304   0.339E-02    0.122E-02
RMM:   2    -0.230939691812E+04   -0.24512E-04   -0.25156E-04  3687   0.843E-03    0.942E-03
RMM:   3    -0.230939692011E+04   -0.19906E-05   -0.29855E-05  2365   0.459E-03
 187 F= -.23298538E+04 E0= -.23298538E+04  d E =-.533224E-04  mag=     2.0000
       N       E                     dE             d eps       ncg     rms          rms(c)
DAV:   1    -0.230939691082E+04    0.73058E-05   -0.56655E-03  4352   0.662E-02    0.231E-02
RMM:   2    -0.230939702184E+04   -0.11103E-03   -0.11473E-03  4946   0.156E-02    0.159E-02
RMM:   3    -0.230939702916E+04   -0.73168E-05   -0.92803E-05  2715   0.566E-03
 188 F= -.23298539E+04 E0= -.23298539E+04  d E =-.111722E-03  mag=     2.0000
       N       E                     dE             d eps       ncg     rms          rms(c)
DAV:   1    -0.230939704578E+04   -0.23937E-04   -0.22672E-04  4488   0.157E-02    0.112E-02
RMM:   2    -0.230939705261E+04   -0.68250E-05   -0.39928E-05  2689   0.404E-03
 189 F= -.23298539E+04 E0= -.23298539E+04  d E =-.226220E-04  mag=     2.0000
       N       E                     dE             d eps       ncg     rms          rms(c)
DAV:   1    -0.230939706495E+04   -0.19165E-04   -0.23723E-04  4408   0.140E-02    0.676E-03
RMM:   2    -0.230939706973E+04   -0.47834E-05   -0.49725E-05  2541   0.371E-03
 190 F= -.23298540E+04 E0= -.23298540E+04  d E =-.173780E-04  mag=     2.0000
       N       E                     dE             d eps       ncg     rms          rms(c)
DAV:   1    -0.230939709338E+04   -0.28436E-04   -0.11413E-03  4200   0.303E-02    0.110E-02
RMM:   2    -0.230939711624E+04   -0.22858E-04   -0.23397E-04  3466   0.797E-03    0.824E-03
RMM:   3    -0.230939711841E+04   -0.21711E-05   -0.25101E-05  2250   0.399E-03
 191 F= -.23298540E+04 E0= -.23298540E+04  d E =-.498757E-04  mag=     2.0000
       N       E                     dE             d eps       ncg     rms          rms(c)
DAV:   1    -0.230939709732E+04    0.18917E-04   -0.63279E-03  4368   0.705E-02    0.248E-02
RMM:   2    -0.230939721883E+04   -0.12151E-03   -0.12490E-03  5027   0.167E-02    0.190E-02
RMM:   3    -0.230939722888E+04   -0.10049E-04   -0.11534E-04  2722   0.623E-03    0.183E-02
RMM:   4    -0.230939722646E+04    0.24231E-05   -0.14514E-05  2428   0.230E-03
 192 F= -.23298541E+04 E0= -.23298541E+04  d E =-.119067E-03  mag=     2.0000
       N       E                     dE             d eps       ncg     rms          rms(c)
DAV:   1    -0.230939724730E+04   -0.18414E-04   -0.97220E-04  4128   0.281E-02    0.105E-02
RMM:   2    -0.230939726508E+04   -0.17785E-04   -0.18319E-04  3347   0.666E-03    0.800E-03
RMM:   3    -0.230939726622E+04   -0.11391E-05   -0.15808E-05  2315   0.344E-03
 193 F= -.23298542E+04 E0= -.23298542E+04  d E =-.455026E-04  mag=     2.0000
       N       E                     dE             d eps       ncg     rms          rms(c)
DAV:   1    -0.230939727313E+04   -0.80501E-05   -0.41716E-03  4336   0.577E-02    0.200E-02
RMM:   2    -0.230939735206E+04   -0.78927E-04   -0.81566E-04  4605   0.132E-02    0.132E-02
RMM:   3    -0.230939735737E+04   -0.53081E-05   -0.66047E-05  2611   0.511E-03
 194 F= -.23298543E+04 E0= -.23298543E+04  d E =-.931077E-04  mag=     2.0000
       N       E                     dE             d eps       ncg     rms          rms(c)
DAV:   1    -0.230939737652E+04   -0.24465E-04   -0.19117E-03  4320   0.408E-02    0.165E-02
RMM:   2    -0.230939741561E+04   -0.39089E-04   -0.35959E-04  3914   0.988E-03    0.244E-02
RMM:   3    -0.230939741323E+04    0.23795E-05   -0.39363E-05  2531   0.477E-03
 195 F= -.23298543E+04 E0= -.23298543E+04  d E =-.602589E-04  mag=     2.0000
       N       E                     dE             d eps       ncg     rms          rms(c)
DAV:   1    -0.230939738790E+04    0.27711E-04   -0.71470E-03  4384   0.772E-02    0.267E-02
RMM:   2    -0.230939752277E+04   -0.13487E-03   -0.13729E-03  5300   0.180E-02    0.232E-02
RMM:   3    -0.230939753084E+04   -0.80659E-05   -0.11811E-04  2834   0.640E-03    0.181E-02
RMM:   4    -0.230939752888E+04    0.19634E-05   -0.15857E-05  2586   0.238E-03
 196 F= -.23298544E+04 E0= -.23298544E+04  d E =-.118440E-03  mag=     2.0000
       N       E                     dE             d eps       ncg     rms          rms(c)
DAV:   1    -0.230939753430E+04   -0.34571E-05   -0.52556E-03  4352   0.661E-02    0.226E-02
RMM:   2    -0.230939763232E+04   -0.98025E-04   -0.99797E-04  4923   0.151E-02    0.218E-02
RMM:   3    -0.230939763968E+04   -0.73626E-05   -0.10231E-04  2744   0.588E-03    0.188E-02
RMM:   4    -0.230939763669E+04    0.29964E-05   -0.11070E-05  2464   0.212E-03
 197 F= -.23298545E+04 E0= -.23298545E+04  d E =-.104451E-03  mag=     2.0000
       N       E                     dE             d eps       ncg     rms          rms(c)
DAV:   1    -0.230939737450E+04    0.26519E-03   -0.72117E-03  4368   0.768E-02    0.264E-02
RMM:   2    -0.230939750527E+04   -0.13077E-03   -0.13698E-03  5207   0.176E-02    0.159E-02
RMM:   3    -0.230939751572E+04   -0.10456E-04   -0.11613E-04  2662   0.617E-03    0.149E-02
RMM:   4    -0.230939751404E+04    0.16859E-05   -0.13458E-05  2290   0.220E-03
 198 F= -.23298544E+04 E0= -.23298544E+04  d E =0.118271E-03  mag=     2.0000
       N       E                     dE             d eps       ncg     rms          rms(c)
DAV:   1    -0.230939752864E+04   -0.12914E-04   -0.14560E-04  4160   0.108E-02    0.647E-03
RMM:   2    -0.230939753129E+04   -0.26553E-05   -0.33809E-05  2471   0.289E-03
 199 F= -.23298544E+04 E0= -.23298544E+04  d E =-.155065E-04  mag=     2.0000
       N       E                     dE             d eps       ncg     rms          rms(c)
DAV:   1    -0.230939753868E+04   -0.10041E-04   -0.15465E-04  4128   0.115E-02    0.478E-03
RMM:   2    -0.230939754214E+04   -0.34651E-05   -0.34690E-05  2417   0.335E-03
 200 F= -.23298545E+04 E0= -.23298545E+04  d E =-.142300E-04  mag=     2.0000
       N       E                     dE             d eps       ncg     rms          rms(c)
DAV:   1    -0.230939756274E+04   -0.24064E-04   -0.21749E-04  4096   0.142E-02    0.596E-03
RMM:   2    -0.230939756786E+04   -0.51160E-05   -0.51950E-05  2654   0.430E-03
 201 F= -.23298545E+04 E0= -.23298545E+04  d E =-.181112E-04  mag=     2.0000
