       N       E                     dE             d eps       ncg     rms          rms(c)
DAV:   1     0.128812418622E+05    0.12881E+05   -0.83726E+05  4504   0.144E+03
DAV:   2    -0.106642929927E+04   -0.13948E+05   -0.13344E+05  5152   0.329E+02
DAV:   3    -0.248692210711E+04   -0.14205E+04   -0.14055E+04  5416   0.112E+02
DAV:   4    -0.253220124897E+04   -0.45279E+02   -0.45041E+02  6808   0.298E+01
DAV:   5    -0.253297801296E+04   -0.77676E+00   -0.77535E+00  6064   0.336E+00    0.171E+02
RMM:   6    -0.149709751526E+04    0.10359E+04   -0.19513E+03  4448   0.383E+01    0.726E+01
RMM:   7    -0.167248551960E+04   -0.17539E+03   -0.30336E+02  5071   0.143E+01    0.521E+01
RMM:   8    -0.171993892491E+04   -0.47453E+02   -0.49966E+01  5285   0.694E+00    0.489E+01
RMM:   9    -0.177603153300E+04   -0.56093E+02   -0.72580E+01  4885   0.726E+00    0.362E+01
RMM:  10    -0.192350017063E+04   -0.14747E+03   -0.66886E+01  5187   0.798E+00    0.299E+01
RMM:  11    -0.197114782732E+04   -0.47648E+02   -0.19885E+01  5250   0.385E+00    0.259E+01
RMM:  12    -0.204110120186E+04   -0.69953E+02   -0.24198E+01  4724   0.382E+00    0.170E+01
RMM:  13    -0.211038055555E+04   -0.69279E+02   -0.26684E+01  4850   0.393E+00    0.130E+01
RMM:  14    -0.222848492573E+04   -0.11810E+03   -0.91247E+01  4448   0.666E+00    0.110E+01
RMM:  15    -0.228052399509E+04   -0.52039E+02   -0.39719E+01  4609   0.492E+00    0.688E+00
RMM:  16    -0.231671115069E+04   -0.36187E+02   -0.32127E+01  4502   0.400E+00    0.623E+00
RMM:  17    -0.232569911055E+04   -0.89880E+01   -0.90884E+00  4624   0.260E+00    0.403E+00
RMM:  18    -0.233106561504E+04   -0.53665E+01   -0.47547E+00  4538   0.141E+00    0.178E+00
RMM:  19    -0.233175711420E+04   -0.69150E+00   -0.57263E-01  4736   0.923E-01    0.105E+00
RMM:  20    -0.233221666587E+04   -0.45955E+00   -0.21368E-01  4649   0.274E-01    0.578E-01
RMM:  21    -0.233240083426E+04   -0.18417E+00   -0.62995E-02  4623   0.268E-01    0.307E-01
RMM:  22    -0.233244558855E+04   -0.44754E-01   -0.17098E-02  4909   0.105E-01    0.185E-01
RMM:  23    -0.233248394799E+04   -0.38359E-01   -0.98404E-03  4480   0.859E-02    0.127E-01
RMM:  24    -0.233250401180E+04   -0.20064E-01   -0.58193E-03  4502   0.585E-02    0.772E-02
RMM:  25    -0.233251652123E+04   -0.12509E-01   -0.36160E-03  4544   0.476E-02    0.516E-02
RMM:  26    -0.233252294572E+04   -0.64245E-02   -0.21791E-03  4627   0.351E-02    0.384E-02
RMM:  27    -0.233252564541E+04   -0.26997E-02   -0.93668E-04  4261   0.250E-02    0.243E-02
RMM:  28    -0.233252644690E+04   -0.80148E-03   -0.26861E-04  4114   0.134E-02    0.149E-02
RMM:  29    -0.233252684076E+04   -0.39386E-03   -0.97614E-05  3691   0.838E-03    0.987E-03
RMM:  30    -0.233252695535E+04   -0.11459E-03   -0.23481E-05  3116   0.502E-03    0.609E-03
RMM:  31    -0.233252706097E+04   -0.10561E-03   -0.20052E-05  3073   0.393E-03    0.318E-03
RMM:  32    -0.233252710569E+04   -0.44724E-04   -0.96925E-06  2878   0.337E-03    0.156E-03
RMM:  33    -0.233252712376E+04   -0.18068E-04   -0.63883E-06  2593   0.264E-03    0.108E-03
RMM:  34    -0.233252712687E+04   -0.31077E-05   -0.31518E-06  2487   0.221E-03
   1 F= -.23535713E+04 E0= -.23535713E+04  d E =-.235357E+04  mag=     7.9997
       N       E                     dE             d eps       ncg     rms          rms(c)
DAV:   1    -0.233253370090E+04   -0.65771E-02   -0.11151E+00  5174   0.736E-01    0.308E-01
RMM:   2    -0.233254142864E+04   -0.77277E-02   -0.91238E-02  5753   0.132E-01    0.218E-01
RMM:   3    -0.233254174964E+04   -0.32100E-03   -0.89689E-03  4893   0.591E-02    0.157E-01
RMM:   4    -0.233254158426E+04    0.16538E-03   -0.14038E-03  4277   0.169E-02    0.125E-01
RMM:   5    -0.233254145699E+04    0.12728E-03   -0.61984E-04  4011   0.137E-02    0.517E-02
RMM:   6    -0.233254143275E+04    0.24239E-04   -0.80381E-05  3071   0.670E-03    0.270E-02
RMM:   7    -0.233254142909E+04    0.36581E-05   -0.28664E-05  2874   0.378E-03
   2 F= -.23535861E+04 E0= -.23535861E+04  d E =-.147391E-01  mag=     7.9997
       N       E                     dE             d eps       ncg     rms          rms(c)
DAV:   1    -0.233254289949E+04   -0.14667E-02   -0.21656E-01  4884   0.377E-01    0.156E-01
RMM:   2    -0.233254548203E+04   -0.25825E-02   -0.27504E-02  5804   0.701E-02    0.115E-01
RMM:   3    -0.233254561792E+04   -0.13589E-03   -0.24911E-03  4030   0.334E-02    0.777E-02
RMM:   4    -0.233254557395E+04    0.43971E-04   -0.31774E-04  3179   0.808E-03    0.465E-02
RMM:   5    -0.233254554589E+04    0.28056E-04   -0.10339E-04  3164   0.638E-03    0.191E-02
RMM:   6    -0.233254554538E+04    0.50575E-06   -0.21773E-05  2957   0.484E-03
   3 F= -.23535905E+04 E0= -.23535905E+04  d E =-.442796E-02  mag=     7.9997
       N       E                     dE             d eps       ncg     rms          rms(c)
DAV:   1    -0.233253862508E+04    0.69208E-02   -0.57107E-01  4696   0.604E-01    0.266E-01
RMM:   2    -0.233254966990E+04   -0.11045E-01   -0.11368E-01  5906   0.120E-01    0.217E-01
RMM:   3    -0.233255036384E+04   -0.69394E-03   -0.10160E-02  4445   0.562E-02    0.118E-01
RMM:   4    -0.233255031762E+04    0.46222E-04   -0.11725E-03  3368   0.113E-02    0.716E-02
RMM:   5    -0.233255024480E+04    0.72812E-04   -0.16095E-04  3186   0.693E-03    0.416E-02
RMM:   6    -0.233255024334E+04    0.14667E-05   -0.10885E-04  3120   0.618E-03    0.423E-02
RMM:   7    -0.233255022971E+04    0.13625E-04   -0.27395E-05  2875   0.459E-03    0.122E-02
RMM:   8    -0.233255022854E+04    0.11741E-05   -0.70728E-06  2788   0.250E-03
   4 F= -.23535957E+04 E0= -.23535957E+04  d E =-.519098E-02  mag=     7.9997
       N       E                     dE             d eps       ncg     rms          rms(c)
DAV:   1    -0.233254870925E+04    0.15205E-02   -0.18216E-01  4688   0.344E-01    0.152E-01
RMM:   2    -0.233255225997E+04   -0.35507E-02   -0.36089E-02  5839   0.689E-02    0.128E-01
RMM:   3    -0.233255247001E+04   -0.21003E-03   -0.31766E-03  3693   0.317E-02    0.658E-02
RMM:   4    -0.233255245183E+04    0.18179E-04   -0.38358E-04  3039   0.696E-03    0.390E-02
RMM:   5    -0.233255243122E+04    0.20607E-04   -0.43208E-05  2930   0.412E-03    0.232E-02
RMM:   6    -0.233255243105E+04    0.16620E-06   -0.38731E-05  2939   0.399E-03
   5 F= -.23535982E+04 E0= -.23535981E+04  d E =-.245934E-02  mag=     7.9997
       N       E                     dE             d eps       ncg     rms          rms(c)
DAV:   1    -0.233254695327E+04    0.54779E-02   -0.41139E-01  4624   0.507E-01    0.230E-01
RMM:   2    -0.233255519358E+04   -0.82403E-02   -0.83120E-02  5972   0.101E-01    0.201E-01
RMM:   3    -0.233255569714E+04   -0.50356E-03   -0.76285E-03  4219   0.476E-02    0.979E-02
RMM:   4    -0.233255567108E+04    0.26053E-04   -0.94375E-04  3176   0.974E-03    0.588E-02
RMM:   5    -0.233255563999E+04    0.31094E-04   -0.71983E-05  2941   0.490E-03    0.454E-02
RMM:   6    -0.233255562891E+04    0.11077E-04   -0.79803E-05  2962   0.483E-03    0.335E-02
RMM:   7    -0.233255562135E+04    0.75606E-05   -0.27843E-05  2932   0.400E-03
   6 F= -.23536016E+04 E0= -.23536016E+04  d E =-.347370E-02  mag=     7.9997
       N       E                     dE             d eps       ncg     rms          rms(c)
DAV:   1    -0.233254699176E+04    0.86372E-02   -0.57210E-01  4592   0.600E-01    0.278E-01
RMM:   2    -0.233255863575E+04   -0.11644E-01   -0.11671E-01  6091   0.121E-01    0.255E-01
RMM:   3    -0.233255925678E+04   -0.62103E-03   -0.10615E-02  4803   0.522E-02    0.117E-01
RMM:   4    -0.233255921613E+04    0.40649E-04   -0.13618E-03  3228   0.113E-02    0.666E-02
RMM:   5    -0.233255917156E+04    0.44569E-04   -0.93473E-05  2988   0.568E-03    0.490E-02
RMM:   6    -0.233255916589E+04    0.56749E-05   -0.10816E-04  3025   0.562E-03    0.450E-02
RMM:   7    -0.233255915058E+04    0.15307E-04   -0.39007E-05  2941   0.464E-03    0.806E-03
RMM:   8    -0.233255915110E+04   -0.52140E-06   -0.70927E-06  2787   0.276E-03
   7 F= -.23536054E+04 E0= -.23536054E+04  d E =-.381076E-02  mag=     7.9997
       N       E                     dE             d eps       ncg     rms          rms(c)
DAV:   1    -0.233254894024E+04    0.10210E-01   -0.62606E-01  4560   0.615E-01    0.293E-01
RMM:   2    -0.233256199826E+04   -0.13058E-01   -0.13070E-01  6038   0.125E-01    0.263E-01
RMM:   3    -0.233256279594E+04   -0.79768E-03   -0.12544E-02  4809   0.549E-02    0.120E-01
RMM:   4    -0.233256274488E+04    0.51056E-04   -0.15469E-03  3257   0.116E-02    0.696E-02
RMM:   5    -0.233256269642E+04    0.48468E-04   -0.95668E-05  2977   0.575E-03    0.489E-02
RMM:   6    -0.233256269262E+04    0.37966E-05   -0.11713E-04  3060   0.569E-03    0.487E-02
RMM:   7    -0.233256267480E+04    0.17823E-04   -0.42486E-05  2920   0.465E-03    0.878E-03
RMM:   8    -0.233256267545E+04   -0.65347E-06   -0.81967E-06  2769   0.259E-03
   8 F= -.23536092E+04 E0= -.23536092E+04  d E =-.376536E-02  mag=     7.9997
       N       E                     dE             d eps       ncg     rms          rms(c)
DAV:   1    -0.233255029781E+04    0.12377E-01   -0.71107E-01  4560   0.646E-01    0.312E-01
RMM:   2    -0.233256524947E+04   -0.14952E-01   -0.14970E-01  6030   0.132E-01    0.278E-01
RMM:   3    -0.233256619228E+04   -0.94281E-03   -0.14435E-02  4892   0.587E-02    0.128E-01
RMM:   4    -0.233256613745E+04    0.54826E-04   -0.17757E-03  3292   0.123E-02    0.743E-02
RMM:   5    -0.233256608329E+04    0.54165E-04   -0.10840E-04  2986   0.599E-03    0.521E-02
RMM:   6    -0.233256607841E+04    0.48715E-05   -0.13019E-04  3076   0.593E-03    0.516E-02
RMM:   7    -0.233256605836E+04    0.20059E-04   -0.48567E-05  2934   0.485E-03    0.962E-03
RMM:   8    -0.233256605915E+04   -0.79541E-06   -0.95922E-06  2807   0.271E-03
   9 F= -.23536129E+04 E0= -.23536129E+04  d E =-.368036E-02  mag=     7.9997
       N       E                     dE             d eps       ncg     rms          rms(c)
DAV:   1    -0.233255129003E+04    0.14768E-01   -0.79781E-01  4560   0.672E-01    0.334E-01
RMM:   2    -0.233256844626E+04   -0.17156E-01   -0.17172E-01  6060   0.139E-01    0.294E-01
RMM:   3    -0.233256957165E+04   -0.11254E-02   -0.16756E-02  4939   0.610E-02    0.136E-01
RMM:   4    -0.233256951382E+04    0.57821E-04   -0.20567E-03  3343   0.130E-02    0.791E-02
RMM:   5    -0.233256945438E+04    0.59449E-04   -0.11877E-04  3004   0.618E-03    0.556E-02
RMM:   6    -0.233256944811E+04    0.62698E-05   -0.14418E-04  3086   0.611E-03    0.548E-02
RMM:   7    -0.233256942512E+04    0.22983E-04   -0.55817E-05  2957   0.507E-03    0.103E-02
RMM:   8    -0.233256942610E+04   -0.97591E-06   -0.11155E-05  2807   0.286E-03
  10 F= -.23536165E+04 E0= -.23536165E+04  d E =-.365929E-02  mag=     7.9998
       N       E                     dE             d eps       ncg     rms          rms(c)
DAV:   1    -0.233256209157E+04    0.73336E-02   -0.41326E-01  4560   0.471E-01    0.242E-01
RMM:   2    -0.233257122788E+04   -0.91363E-02   -0.91479E-02  6036   0.990E-02    0.210E-01
RMM:   3    -0.233257183499E+04   -0.60710E-03   -0.87537E-03  4288   0.425E-02    0.973E-02
RMM:   4    -0.233257180582E+04    0.29169E-04   -0.10921E-03  3105   0.962E-03    0.572E-02
RMM:   5    -0.233257177439E+04    0.31427E-04   -0.61322E-05  2904   0.455E-03    0.388E-02
RMM:   6    -0.233257177295E+04    0.14431E-05   -0.76877E-05  2939   0.458E-03
  11 F= -.23536191E+04 E0= -.23536191E+04  d E =-.254617E-02  mag=     7.9998
       N       E                     dE             d eps       ncg     rms          rms(c)
DAV:   1    -0.233252091637E+04    0.50858E-01   -0.24018E+00  4528   0.114E+00    0.583E-01
RMM:   2    -0.233257339994E+04   -0.52484E-01   -0.52576E-01  6145   0.239E-01    0.516E-01
RMM:   3    -0.233257713522E+04   -0.37353E-02   -0.54276E-02  5376   0.111E-01    0.241E-01
RMM:   4    -0.233257700217E+04    0.13304E-03   -0.63917E-03  4073   0.222E-02    0.143E-01
RMM:   5    -0.233257684488E+04    0.15729E-03   -0.37301E-04  3198   0.951E-03    0.109E-01
RMM:   6    -0.233257678417E+04    0.60713E-04   -0.40039E-04  3390   0.927E-03    0.836E-02
RMM:   7    -0.233257673071E+04    0.53456E-04   -0.17487E-04  3268   0.782E-03    0.209E-02
RMM:   8    -0.233257673356E+04   -0.28441E-05   -0.32806E-05  2921   0.464E-03
  12 F= -.23536246E+04 E0= -.23536246E+04  d E =-.549430E-02  mag=     7.9998
       N       E                     dE             d eps       ncg     rms          rms(c)
DAV:   1    -0.233257435963E+04    0.23711E-02   -0.15375E-01  4664   0.284E-01    0.148E-01
RMM:   2    -0.233257779145E+04   -0.34318E-02   -0.34527E-02  6087   0.611E-02    0.118E-01
RMM:   3    -0.233257804134E+04   -0.24989E-03   -0.32020E-03  3325   0.249E-02    0.568E-02
RMM:   4    -0.233257804171E+04   -0.36450E-06   -0.41718E-04  2968   0.638E-03    0.350E-02
RMM:   5    -0.233257803043E+04    0.11276E-04   -0.23723E-05  2784   0.303E-03    0.233E-02
RMM:   6    -0.233257803068E+04   -0.25140E-06   -0.28491E-05  2868   0.301E-03
  13 F= -.23536260E+04 E0= -.23536260E+04  d E =-.141529E-02  mag=     7.9998
       N       E                     dE             d eps       ncg     rms          rms(c)
DAV:   1    -0.233257816647E+04   -0.13604E-03   -0.56936E-03  4938   0.714E-02    0.264E-02
RMM:   2    -0.233257825830E+04   -0.91828E-04   -0.94889E-04  4298   0.147E-02    0.148E-02
RMM:   3    -0.233257826698E+04   -0.86785E-05   -0.89065E-05  2884   0.720E-03
  14 F= -.23536263E+04 E0= -.23536262E+04  d E =-.256690E-03  mag=     7.9998
       N       E                     dE             d eps       ncg     rms          rms(c)
DAV:   1    -0.233257015833E+04    0.81000E-02   -0.42639E-01  4528   0.473E-01    0.246E-01
RMM:   2    -0.233257974995E+04   -0.95916E-02   -0.96026E-02  6171   0.100E-01    0.214E-01
RMM:   3    -0.233258042149E+04   -0.67153E-03   -0.90212E-03  4301   0.420E-02    0.103E-01
RMM:   4    -0.233258038444E+04    0.37044E-04   -0.11355E-03  3087   0.992E-03    0.603E-02
RMM:   5    -0.233258034999E+04    0.34448E-04   -0.65423E-05  2945   0.485E-03    0.372E-02
RMM:   6    -0.233258034416E+04    0.58302E-05   -0.80509E-05  3029   0.504E-03
  15 F= -.23536285E+04 E0= -.23536285E+04  d E =-.227866E-02  mag=     7.9999
       N       E                     dE             d eps       ncg     rms          rms(c)
DAV:   1    -0.233256372267E+04    0.16627E-01   -0.81082E-01  4560   0.655E-01    0.340E-01
RMM:   2    -0.233258180235E+04   -0.18080E-01   -0.18149E-01  6094   0.138E-01    0.292E-01
RMM:   3    -0.233258314663E+04   -0.13443E-02   -0.17625E-02  4914   0.614E-02    0.144E-01
RMM:   4    -0.233258308146E+04    0.65168E-04   -0.21401E-03  3280   0.131E-02    0.829E-02
RMM:   5    -0.233258302678E+04    0.54677E-04   -0.12801E-04  2993   0.595E-03    0.575E-02
RMM:   6    -0.233258301925E+04    0.75279E-05   -0.13245E-04  3041   0.584E-03    0.524E-02
RMM:   7    -0.233258299923E+04    0.20018E-04   -0.52615E-05  2971   0.484E-03    0.134E-02
RMM:   8    -0.233258300069E+04   -0.14510E-05   -0.11758E-05  2851   0.285E-03
  16 F= -.23536315E+04 E0= -.23536315E+04  d E =-.293778E-02  mag=     7.9999
       N       E                     dE             d eps       ncg     rms          rms(c)
DAV:   1    -0.233257104232E+04    0.11957E-01   -0.59175E-01  4560   0.554E-01    0.291E-01
RMM:   2    -0.233258425968E+04   -0.13217E-01   -0.13263E-01  6167   0.117E-01    0.244E-01
RMM:   3    -0.233258521517E+04   -0.95549E-03   -0.12833E-02  4577   0.502E-02    0.114E-01
RMM:   4    -0.233258518359E+04    0.31573E-04   -0.15844E-03  3157   0.113E-02    0.686E-02
RMM:   5    -0.233258514029E+04    0.43297E-04   -0.88047E-05  2950   0.530E-03    0.464E-02
RMM:   6    -0.233258513737E+04    0.29271E-05   -0.10237E-04  3016   0.515E-03    0.470E-02
RMM:   7    -0.233258512118E+04    0.16189E-04   -0.37997E-05  2890   0.423E-03    0.101E-02
RMM:   8    -0.233258512236E+04   -0.11758E-05   -0.87990E-06  2790   0.232E-03
  17 F= -.23536339E+04 E0= -.23536338E+04  d E =-.238256E-02  mag=     7.9999
       N       E                     dE             d eps       ncg     rms          rms(c)
DAV:   1    -0.233258268866E+04    0.24325E-02   -0.14655E-01  4544   0.275E-01    0.144E-01
RMM:   2    -0.233258596102E+04   -0.32724E-02   -0.32935E-02  5950   0.584E-02    0.117E-01
RMM:   3    -0.233258619829E+04   -0.23727E-03   -0.30835E-03  3320   0.257E-02    0.556E-02
RMM:   4    -0.233258619146E+04    0.68284E-05   -0.38811E-04  2967   0.615E-03    0.341E-02
RMM:   5    -0.233258617988E+04    0.11582E-04   -0.22913E-05  2794   0.290E-03    0.215E-02
RMM:   6    -0.233258617964E+04    0.23514E-06   -0.27368E-05  2863   0.288E-03
  18 F= -.23536350E+04 E0= -.23536350E+04  d E =-.119455E-02  mag=     7.9999
       N       E                     dE             d eps       ncg     rms          rms(c)
DAV:   1    -0.233257934921E+04    0.68307E-02   -0.34990E-01  4560   0.420E-01    0.224E-01
RMM:   2    -0.233258721626E+04   -0.78670E-02   -0.79102E-02  6106   0.890E-02    0.183E-01
RMM:   3    -0.233258781091E+04   -0.59465E-03   -0.76909E-03  3905   0.413E-02    0.881E-02
RMM:   4    -0.233258779339E+04    0.17518E-04   -0.94665E-04  3090   0.914E-03    0.546E-02
RMM:   5    -0.233258776972E+04    0.23671E-04   -0.54792E-05  2895   0.408E-03    0.389E-02
RMM:   6    -0.233258776453E+04    0.51841E-05   -0.55827E-05  2869   0.384E-03
  19 F= -.23536368E+04 E0= -.23536368E+04  d E =-.178355E-02  mag=     7.9999
       N       E                     dE             d eps       ncg     rms          rms(c)
DAV:   1    -0.233258748996E+04    0.27976E-03   -0.28840E-02  4704   0.121E-01    0.637E-02
RMM:   2    -0.233258814085E+04   -0.65089E-03   -0.66117E-03  5255   0.267E-02    0.455E-02
RMM:   3    -0.233258819854E+04   -0.57695E-04   -0.64705E-04  2944   0.119E-02    0.246E-02
RMM:   4    -0.233258819886E+04   -0.31554E-06   -0.79748E-05  2896   0.321E-03
  20 F= -.23536373E+04 E0= -.23536373E+04  d E =-.498676E-03  mag=     7.9999
       N       E                     dE             d eps       ncg     rms          rms(c)
DAV:   1    -0.233258756614E+04    0.63240E-03   -0.52211E-02  4526   0.163E-01    0.821E-02
RMM:   2    -0.233258873675E+04   -0.11706E-02   -0.11709E-02  5775   0.349E-02    0.690E-02
RMM:   3    -0.233258881994E+04   -0.83196E-04   -0.10928E-03  3004   0.159E-02    0.355E-02
RMM:   4    -0.233258881639E+04    0.35505E-05   -0.13669E-04  2928   0.402E-03    0.248E-02
RMM:   5    -0.233258881191E+04    0.44845E-05   -0.12315E-05  2724   0.215E-03
  21 F= -.23536380E+04 E0= -.23536380E+04  d E =-.688062E-03  mag=     7.9999
       N       E                     dE             d eps       ncg     rms          rms(c)
DAV:   1    -0.233252853021E+04    0.60286E-01   -0.26451E+00  4528   0.113E+00    0.621E-01
RMM:   2    -0.233258863194E+04   -0.60102E-01   -0.60270E-01  6237   0.244E-01    0.541E-01
RMM:   3    -0.233259314516E+04   -0.45132E-02   -0.62214E-02  5485   0.112E-01    0.250E-01
RMM:   4    -0.233259303948E+04    0.10568E-03   -0.72429E-03  3954   0.227E-02    0.150E-01
RMM:   5    -0.233259285135E+04    0.18813E-03   -0.41702E-04  3203   0.972E-03    0.106E-01
RMM:   6    -0.233259281783E+04    0.33524E-04   -0.44707E-04  3415   0.948E-03    0.972E-02
RMM:   7    -0.233259274566E+04    0.72168E-04   -0.17874E-04  3143   0.764E-03    0.249E-02
RMM:   8    -0.233259274808E+04   -0.24229E-05   -0.40991E-05  2939   0.437E-03
  22 F= -.23536425E+04 E0= -.23536425E+04  d E =-.451879E-02  mag=     7.9999
       N       E                     dE             d eps       ncg     rms          rms(c)
DAV:   1    -0.233259167401E+04    0.10716E-02   -0.72895E-02  4600   0.198E-01    0.100E-01
RMM:   2    -0.233259324819E+04   -0.15742E-02   -0.15973E-02  5976   0.425E-02    0.710E-02
RMM:   3    -0.233259337628E+04   -0.12809E-03   -0.14837E-03  3039   0.180E-02    0.352E-02
RMM:   4    -0.233259337843E+04   -0.21547E-05   -0.18629E-04  2949   0.448E-03    0.235E-02
RMM:   5    -0.233259337369E+04    0.47405E-05   -0.12715E-05  2733   0.232E-03
  23 F= -.23536433E+04 E0= -.23536433E+04  d E =-.726716E-03  mag=     7.9999
       N       E                     dE             d eps       ncg     rms          rms(c)
DAV:   1    -0.233259342254E+04   -0.44111E-04   -0.15964E-03  5176   0.439E-02    0.221E-02
RMM:   2    -0.233259344728E+04   -0.24739E-04   -0.19383E-04  3837   0.995E-03    0.369E-02
RMM:   3    -0.233259343755E+04    0.97314E-05   -0.25797E-05  2874   0.568E-03
  24 F= -.23536433E+04 E0= -.23536433E+04  d E =-.837602E-04  mag=     7.9999
       N       E                     dE             d eps       ncg     rms          rms(c)
DAV:   1    -0.233259330357E+04    0.14371E-03   -0.20427E-02  4536   0.106E-01    0.533E-02
RMM:   2    -0.233259374502E+04   -0.44145E-03   -0.44426E-03  5253   0.228E-02    0.423E-02
RMM:   3    -0.233259377641E+04   -0.31394E-04   -0.39694E-04  2920   0.101E-02    0.215E-02
RMM:   4    -0.233259377493E+04    0.14874E-05   -0.51484E-05  2866   0.274E-03
  25 F= -.23536437E+04 E0= -.23536437E+04  d E =-.394969E-03  mag=     7.9999
       N       E                     dE             d eps       ncg     rms          rms(c)
DAV:   1    -0.233259298962E+04    0.78679E-03   -0.58028E-02  4526   0.173E-01    0.865E-02
RMM:   2    -0.233259425584E+04   -0.12662E-02   -0.12715E-02  5667   0.358E-02    0.711E-02
RMM:   3    -0.233259434425E+04   -0.88406E-04   -0.11431E-03  3042   0.161E-02    0.362E-02
RMM:   4    -0.233259433960E+04    0.46465E-05   -0.14481E-04  2939   0.413E-03    0.247E-02
RMM:   5    -0.233259433442E+04    0.51800E-05   -0.11758E-05  2680   0.217E-03
  26 F= -.23536444E+04 E0= -.23536444E+04  d E =-.646691E-03  mag=     7.9999
       N       E                     dE             d eps       ncg     rms          rms(c)
DAV:   1    -0.233259286723E+04    0.14724E-02   -0.93808E-02  4528   0.220E-01    0.114E-01
RMM:   2    -0.233259490886E+04   -0.20416E-02   -0.20591E-02  5918   0.459E-02    0.923E-02
RMM:   3    -0.233259505361E+04   -0.14474E-03   -0.18378E-03  3122   0.191E-02    0.465E-02
RMM:   4    -0.233259504652E+04    0.70868E-05   -0.23641E-04  2953   0.511E-03    0.290E-02
RMM:   5    -0.233259504011E+04    0.64146E-05   -0.16140E-05  2739   0.239E-03
  27 F= -.23536452E+04 E0= -.23536452E+04  d E =-.815132E-03  mag=     7.9999
       N       E                     dE             d eps       ncg     rms          rms(c)
DAV:   1    -0.233259317194E+04    0.18746E-02   -0.11315E-01  4528   0.241E-01    0.124E-01
RMM:   2    -0.233259565776E+04   -0.24858E-02   -0.24869E-02  5964   0.501E-02    0.112E-01
RMM:   3    -0.233259581759E+04   -0.15984E-03   -0.23162E-03  3148   0.214E-02    0.578E-02
RMM:   4    -0.233259580323E+04    0.14366E-04   -0.28978E-04  2955   0.571E-03    0.320E-02
RMM:   5    -0.233259579750E+04    0.57243E-05   -0.22168E-05  2792   0.260E-03
  28 F= -.23536461E+04 E0= -.23536461E+04  d E =-.877907E-03  mag=     7.9999
       N       E                     dE             d eps       ncg     rms          rms(c)
DAV:   1    -0.233259205667E+04    0.37466E-02   -0.20451E-01  4560   0.323E-01    0.166E-01
RMM:   2    -0.233259651092E+04   -0.44542E-02   -0.44700E-02  6103   0.672E-02    0.143E-01
RMM:   3    -0.233259680844E+04   -0.29752E-03   -0.40441E-03  3433   0.281E-02    0.699E-02
RMM:   4    -0.233259679195E+04    0.16495E-04   -0.51146E-04  3007   0.721E-03    0.448E-02
RMM:   5    -0.233259677625E+04    0.15699E-04   -0.38481E-05  2861   0.357E-03    0.269E-02
RMM:   6    -0.233259677718E+04   -0.93532E-06   -0.40196E-05  2907   0.350E-03
  29 F= -.23536472E+04 E0= -.23536472E+04  d E =-.114582E-02  mag=     7.9999
       N       E                     dE             d eps       ncg     rms          rms(c)
DAV:   1    -0.233259622950E+04    0.54675E-03   -0.43792E-02  4568   0.153E-01    0.784E-02
RMM:   2    -0.233259717115E+04   -0.94165E-03   -0.95368E-03  5631   0.323E-02    0.601E-02
RMM:   3    -0.233259724498E+04   -0.73832E-04   -0.88654E-04  2978   0.135E-02    0.313E-02
RMM:   4    -0.233259724473E+04    0.24909E-06   -0.11376E-04  2913   0.375E-03    0.199E-02
RMM:   5    -0.233259724219E+04    0.25374E-05   -0.74320E-06  2646   0.181E-03
  30 F= -.23536478E+04 E0= -.23536478E+04  d E =-.532016E-03  mag=     7.9999
       N       E                     dE             d eps       ncg     rms          rms(c)
DAV:   1    -0.233259458603E+04    0.26587E-02   -0.14999E-01  4560   0.275E-01    0.141E-01
RMM:   2    -0.233259785068E+04   -0.32646E-02   -0.32885E-02  5979   0.570E-02    0.112E-01
RMM:   3    -0.233259809498E+04   -0.24430E-03   -0.30203E-03  3272   0.249E-02    0.605E-02
RMM:   4    -0.233259808154E+04    0.13444E-04   -0.37893E-04  2979   0.628E-03    0.372E-02
RMM:   5    -0.233259807217E+04    0.93752E-05   -0.27152E-05  2801   0.287E-03
  31 F= -.23536487E+04 E0= -.23536487E+04  d E =-.972254E-03  mag=     7.9999
       N       E                     dE             d eps       ncg     rms          rms(c)
DAV:   1    -0.233259716460E+04    0.91694E-03   -0.66017E-02  4528   0.192E-01    0.936E-02
RMM:   2    -0.233259856092E+04   -0.13963E-02   -0.13949E-02  5921   0.393E-02    0.902E-02
RMM:   3    -0.233259864765E+04   -0.86735E-04   -0.12578E-03  3034   0.158E-02    0.443E-02
RMM:   4    -0.233259864073E+04    0.69240E-05   -0.16045E-04  2903   0.446E-03    0.268E-02
RMM:   5    -0.233259863731E+04    0.34166E-05   -0.14569E-05  2780   0.228E-03
  32 F= -.23536494E+04 E0= -.23536494E+04  d E =-.645601E-03  mag=     7.9999
       N       E                     dE             d eps       ncg     rms          rms(c)
DAV:   1    -0.233258136366E+04    0.17277E-01   -0.83013E-01  4524   0.649E-01    0.335E-01
RMM:   2    -0.233259927866E+04   -0.17915E-01   -0.18051E-01  6221   0.134E-01    0.270E-01
RMM:   3    -0.233260063288E+04   -0.13542E-02   -0.17025E-02  4794   0.584E-02    0.141E-01
RMM:   4    -0.233260056311E+04    0.69773E-04   -0.20821E-03  3237   0.130E-02    0.864E-02
RMM:   5    -0.233260051009E+04    0.53023E-04   -0.13987E-04  3024   0.600E-03    0.607E-02
RMM:   6    -0.233260049969E+04    0.10400E-04   -0.14447E-04  3033   0.587E-03    0.514E-02
RMM:   7    -0.233260048004E+04    0.19645E-04   -0.50041E-05  2993   0.464E-03    0.114E-02
RMM:   8    -0.233260048121E+04   -0.11650E-05   -0.95286E-06  2841   0.280E-03
  33 F= -.23536515E+04 E0= -.23536515E+04  d E =-.215827E-02  mag=     7.9999
       N       E                     dE             d eps       ncg     rms          rms(c)
DAV:   1    -0.233259943962E+04    0.10404E-02   -0.31696E-02  4560   0.132E-01    0.666E-02
RMM:   2    -0.233260011189E+04   -0.67228E-03   -0.67446E-03  5684   0.280E-02    0.552E-02
RMM:   3    -0.233260015860E+04   -0.46708E-04   -0.62868E-04  2935   0.124E-02    0.278E-02
RMM:   4    -0.233260015496E+04    0.36473E-05   -0.76210E-05  2914   0.335E-03
  34 F= -.23536511E+04 E0= -.23536511E+04  d E =0.387414E-03  mag=     7.9999
       N       E                     dE             d eps       ncg     rms          rms(c)
DAV:   1    -0.233256790325E+04    0.32255E-01   -0.14988E+00  4524   0.867E-01    0.456E-01
RMM:   2    -0.233260014087E+04   -0.32238E-01   -0.32579E-01  6179   0.180E-01    0.352E-01
RMM:   3    -0.233260269103E+04   -0.25502E-02   -0.31008E-02  5206   0.806E-02    0.183E-01
RMM:   4    -0.233260262534E+04    0.65688E-04   -0.37744E-03  3463   0.167E-02    0.110E-01
RMM:   5    -0.233260252664E+04    0.98705E-04   -0.22558E-04  3067   0.758E-03    0.721E-02
RMM:   6    -0.233260251479E+04    0.11849E-04   -0.23614E-04  3179   0.724E-03    0.695E-02
RMM:   7    -0.233260247811E+04    0.36676E-04   -0.84190E-05  3011   0.581E-03    0.196E-02
RMM:   8    -0.233260247835E+04   -0.24194E-06   -0.21535E-05  2880   0.326E-03
  35 F= -.23536539E+04 E0= -.23536539E+04  d E =-.275977E-02  mag=     7.9999
       N       E                     dE             d eps       ncg     rms          rms(c)
DAV:   1    -0.233259447547E+04    0.80026E-02   -0.39991E-01  4528   0.452E-01    0.232E-01
RMM:   2    -0.233260299905E+04   -0.85236E-02   -0.86295E-02  6099   0.930E-02    0.170E-01
RMM:   3    -0.233260366481E+04   -0.66575E-03   -0.78029E-03  3899   0.388E-02    0.878E-02
RMM:   4    -0.233260365631E+04    0.84928E-05   -0.98771E-04  3070   0.920E-03    0.573E-02
RMM:   5    -0.233260362882E+04    0.27494E-04   -0.63447E-05  2923   0.443E-03    0.340E-02
RMM:   6    -0.233260362786E+04    0.96251E-06   -0.64705E-05  2965   0.424E-03
  36 F= -.23536553E+04 E0= -.23536553E+04  d E =-.137391E-02  mag=     7.9999
       N       E                     dE             d eps       ncg     rms          rms(c)
DAV:   1    -0.233260336488E+04    0.26394E-03   -0.22200E-02  4720   0.108E-01    0.544E-02
RMM:   2    -0.233260383953E+04   -0.47465E-03   -0.48705E-03  5124   0.237E-02    0.329E-02
RMM:   3    -0.233260388619E+04   -0.46652E-04   -0.47303E-04  2921   0.106E-02    0.219E-02
RMM:   4    -0.233260388720E+04   -0.10153E-05   -0.59253E-05  2888   0.290E-03
  37 F= -.23536556E+04 E0= -.23536556E+04  d E =-.314874E-03  mag=     7.9999
       N       E                     dE             d eps       ncg     rms          rms(c)
DAV:   1    -0.233259999425E+04    0.38919E-02   -0.20305E-01  4528   0.317E-01    0.162E-01
RMM:   2    -0.233260433593E+04   -0.43417E-02   -0.43846E-02  6116   0.657E-02    0.119E-01
RMM:   3    -0.233260467721E+04   -0.34128E-03   -0.39751E-03  3321   0.287E-02    0.634E-02
RMM:   4    -0.233260466846E+04    0.87488E-05   -0.49917E-04  3033   0.702E-03    0.448E-02
RMM:   5    -0.233260465271E+04    0.15756E-04   -0.39082E-05  2861   0.352E-03    0.261E-02
RMM:   6    -0.233260465310E+04   -0.39424E-06   -0.39483E-05  2892   0.340E-03
  38 F= -.23536565E+04 E0= -.23536565E+04  d E =-.930272E-03  mag=     8.0000
       N       E                     dE             d eps       ncg     rms          rms(c)
DAV:   1    -0.233260070292E+04    0.39498E-02   -0.20278E-01  4528   0.317E-01    0.165E-01
RMM:   2    -0.233260504575E+04   -0.43428E-02   -0.44080E-02  5941   0.653E-02    0.118E-01
RMM:   3    -0.233260540644E+04   -0.36069E-03   -0.40828E-03  3443   0.308E-02    0.634E-02
RMM:   4    -0.233260539955E+04    0.68848E-05   -0.50785E-04  3024   0.694E-03    0.429E-02
RMM:   5    -0.233260538677E+04    0.12787E-04   -0.33548E-05  2817   0.317E-03    0.285E-02
RMM:   6    -0.233260538463E+04    0.21395E-05   -0.33172E-05  2831   0.298E-03
  39 F= -.23536574E+04 E0= -.23536574E+04  d E =-.901419E-03  mag=     8.0000
       N       E                     dE             d eps       ncg     rms          rms(c)
DAV:   1    -0.233260071713E+04    0.46696E-02   -0.23515E-01  4528   0.339E-01    0.177E-01
RMM:   2    -0.233260574865E+04   -0.50315E-02   -0.51084E-02  6049   0.700E-02    0.125E-01
RMM:   3    -0.233260616685E+04   -0.41820E-03   -0.47000E-03  3435   0.316E-02    0.669E-02
RMM:   4    -0.233260615950E+04    0.73468E-05   -0.58415E-04  3029   0.750E-03    0.461E-02
RMM:   5    -0.233260614425E+04    0.15253E-04   -0.39271E-05  2860   0.348E-03    0.298E-02
RMM:   6    -0.233260614246E+04    0.17893E-05   -0.39246E-05  2842   0.325E-03
  40 F= -.23536584E+04 E0= -.23536584E+04  d E =-.939214E-03  mag=     8.0000
       N       E                     dE             d eps       ncg     rms          rms(c)
DAV:   1    -0.233259099562E+04    0.15149E-01   -0.71670E-01  4520   0.591E-01    0.309E-01
RMM:   2    -0.233260625655E+04   -0.15261E-01   -0.15486E-01  6160   0.122E-01    0.222E-01
RMM:   3    -0.233260751803E+04   -0.12615E-02   -0.14373E-02  4377   0.553E-02    0.119E-01
RMM:   4    -0.233260750353E+04    0.14500E-04   -0.17787E-03  3188   0.119E-02    0.801E-02
RMM:   5    -0.233260745638E+04    0.47148E-04   -0.11819E-04  2983   0.560E-03    0.513E-02
RMM:   6    -0.233260745043E+04    0.59506E-05   -0.11824E-04  3018   0.528E-03    0.465E-02
RMM:   7    -0.233260743556E+04    0.14870E-04   -0.38048E-05  2917   0.415E-03    0.142E-02
RMM:   8    -0.233260743583E+04   -0.27177E-06   -0.96699E-06  2805   0.235E-03
  41 F= -.23536600E+04 E0= -.23536600E+04  d E =-.160612E-02  mag=     8.0000
       N       E                     dE             d eps       ncg     rms          rms(c)
DAV:   1    -0.233260709051E+04    0.34505E-03   -0.92893E-03  4752   0.717E-02    0.366E-02
RMM:   2    -0.233260728853E+04   -0.19802E-03   -0.19709E-03  4275   0.157E-02    0.325E-02
RMM:   3    -0.233260730150E+04   -0.12967E-04   -0.18870E-04  2890   0.787E-03    0.158E-02
RMM:   4    -0.233260730035E+04    0.11520E-05   -0.22509E-05  2859   0.217E-03
  42 F= -.23536598E+04 E0= -.23536598E+04  d E =0.164282E-03  mag=     8.0000
       N       E                     dE             d eps       ncg     rms          rms(c)
DAV:   1    -0.233257335335E+04    0.33948E-01   -0.15514E+00  4524   0.862E-01    0.460E-01
RMM:   2    -0.233260655565E+04   -0.33202E-01   -0.33628E-01  6274   0.180E-01    0.345E-01
RMM:   3    -0.233260927066E+04   -0.27150E-02   -0.31971E-02  5093   0.791E-02    0.182E-01
RMM:   4    -0.233260921720E+04    0.53467E-04   -0.38646E-03  3457   0.168E-02    0.114E-01
RMM:   5    -0.233260911427E+04    0.10292E-03   -0.24054E-04  3064   0.765E-03    0.729E-02
RMM:   6    -0.233260910314E+04    0.11133E-04   -0.24726E-04  3184   0.731E-03    0.702E-02
RMM:   7    -0.233260906644E+04    0.36694E-04   -0.83126E-05  2999   0.573E-03    0.215E-02
RMM:   8    -0.233260906613E+04    0.31569E-06   -0.22515E-05  2883   0.318E-03
  43 F= -.23536620E+04 E0= -.23536620E+04  d E =-.223464E-02  mag=     8.0000
       N       E                     dE             d eps       ncg     rms          rms(c)
DAV:   1    -0.233260548160E+04    0.35848E-02   -0.13588E-01  4524   0.259E-01    0.136E-01
RMM:   2    -0.233260839713E+04   -0.29155E-02   -0.29318E-02  6037   0.543E-02    0.111E-01
RMM:   3    -0.233260860998E+04   -0.21285E-03   -0.27219E-03  3222   0.235E-02    0.560E-02
RMM:   4    -0.233260859898E+04    0.10991E-04   -0.33303E-04  2980   0.603E-03    0.336E-02
RMM:   5    -0.233260858944E+04    0.95498E-05   -0.22866E-05  2825   0.285E-03
  44 F= -.23536614E+04 E0= -.23536614E+04  d E =0.609552E-03  mag=     8.0000
       N       E                     dE             d eps       ncg     rms          rms(c)
DAV:   1    -0.233260771715E+04    0.88183E-03   -0.51643E-02  4544   0.153E-01    0.880E-02
RMM:   2    -0.233260883924E+04   -0.11221E-02   -0.11305E-02  5459   0.328E-02    0.755E-02
RMM:   3    -0.233260891747E+04   -0.78230E-04   -0.10398E-03  3017   0.146E-02    0.392E-02
RMM:   4    -0.233260891251E+04    0.49679E-05   -0.13223E-04  2893   0.395E-03    0.199E-02
RMM:   5    -0.233260890996E+04    0.25483E-05   -0.85097E-06  2562   0.171E-03
  45 F= -.23536618E+04 E0= -.23536618E+04  d E =-.406943E-03  mag=     8.0000
       N       E                     dE             d eps       ncg     rms          rms(c)
DAV:   1    -0.233260893410E+04   -0.21595E-04   -0.13296E-03  4544   0.271E-02    0.132E-02
RMM:   2    -0.233260896201E+04   -0.27909E-04   -0.27702E-04  3072   0.612E-03    0.150E-02
RMM:   3    -0.233260896309E+04   -0.10788E-05   -0.25820E-05  2544   0.347E-03
  46 F= -.23536619E+04 E0= -.23536619E+04  d E =-.653645E-04  mag=     8.0000
       N       E                     dE             d eps       ncg     rms          rms(c)
DAV:   1    -0.233260764978E+04    0.13122E-02   -0.76029E-02  4528   0.192E-01    0.979E-02
RMM:   2    -0.233260922918E+04   -0.15794E-02   -0.16031E-02  5754   0.396E-02    0.674E-02
RMM:   3    -0.233260935525E+04   -0.12607E-03   -0.13984E-03  3001   0.167E-02    0.366E-02
RMM:   4    -0.233260935409E+04    0.11651E-05   -0.18045E-04  2933   0.443E-03    0.272E-02
RMM:   5    -0.233260934806E+04    0.60270E-05   -0.14588E-05  2703   0.229E-03
  47 F= -.23536624E+04 E0= -.23536624E+04  d E =-.487552E-03  mag=     8.0000
       N       E                     dE             d eps       ncg     rms          rms(c)
DAV:   1    -0.233260935366E+04    0.42580E-06   -0.31945E-03  4344   0.405E-02    0.214E-02
RMM:   2    -0.233260942326E+04   -0.69604E-04   -0.69877E-04  3312   0.893E-03    0.208E-02
RMM:   3    -0.233260942820E+04   -0.49387E-05   -0.70129E-05  2739   0.491E-03
  48 F= -.23536625E+04 E0= -.23536625E+04  d E =-.102205E-03  mag=     8.0000
       N       E                     dE             d eps       ncg     rms          rms(c)
DAV:   1    -0.233260634275E+04    0.30805E-02   -0.16053E-01  4510   0.277E-01    0.144E-01
RMM:   2    -0.233260973074E+04   -0.33880E-02   -0.34376E-02  6070   0.575E-02    0.101E-01
RMM:   3    -0.233261000118E+04   -0.27044E-03   -0.30343E-03  3188   0.238E-02    0.562E-02
RMM:   4    -0.233260999524E+04    0.59430E-05   -0.38857E-04  2990   0.623E-03    0.394E-02
RMM:   5    -0.233260998273E+04    0.12512E-04   -0.29565E-05  2845   0.309E-03    0.204E-02
RMM:   6    -0.233260997989E+04    0.28364E-05   -0.22661E-05  2907   0.279E-03
  49 F= -.23536632E+04 E0= -.23536632E+04  d E =-.694630E-03  mag=     8.0000
       N       E                     dE             d eps       ncg     rms          rms(c)
DAV:   1    -0.233260786672E+04    0.21160E-02   -0.11437E-01  4492   0.236E-01    0.123E-01
RMM:   2    -0.233261026562E+04   -0.23989E-02   -0.24481E-02  5824   0.487E-02    0.821E-02
RMM:   3    -0.233261046205E+04   -0.19643E-03   -0.21257E-03  3168   0.219E-02    0.465E-02
RMM:   4    -0.233261045919E+04    0.28535E-05   -0.27131E-04  2965   0.532E-03    0.326E-02
RMM:   5    -0.233261045158E+04    0.76174E-05   -0.19586E-05  2740   0.251E-03
  50 F= -.23536638E+04 E0= -.23536638E+04  d E =-.580213E-03  mag=     8.0000
       N       E                     dE             d eps       ncg     rms          rms(c)
DAV:   1    -0.233261014255E+04    0.31664E-03   -0.23386E-02  4520   0.109E-01    0.560E-02
RMM:   2    -0.233261063024E+04   -0.48769E-03   -0.49106E-03  5084   0.228E-02    0.507E-02
RMM:   3    -0.233261066289E+04   -0.32650E-04   -0.45203E-04  2936   0.971E-03    0.324E-02
RMM:   4    -0.233261065857E+04    0.43241E-05   -0.56263E-05  2859   0.289E-03
  51 F= -.23536640E+04 E0= -.23536640E+04  d E =-.261278E-03  mag=     8.0000
       N       E                     dE             d eps       ncg     rms          rms(c)
DAV:   1    -0.233255790019E+04    0.52763E-01   -0.24357E+00  4520   0.108E+00    0.557E-01
RMM:   2    -0.233260835572E+04   -0.50456E-01   -0.51466E-01  6281   0.222E-01    0.370E-01
RMM:   3    -0.233261288776E+04   -0.45320E-02   -0.49356E-02  5128   0.994E-02    0.211E-01
RMM:   4    -0.233261287863E+04    0.91296E-05   -0.58152E-03  3722   0.205E-02    0.152E-01
RMM:   5    -0.233261271224E+04    0.16639E-03   -0.43714E-04  3159   0.951E-03    0.944E-02
RMM:   6    -0.233261267938E+04    0.32859E-04   -0.40936E-04  3437   0.927E-03    0.799E-02
RMM:   7    -0.233261263818E+04    0.41201E-04   -0.11580E-04  3045   0.670E-03    0.353E-02
RMM:   8    -0.233261263229E+04    0.58893E-05   -0.37822E-05  2915   0.376E-03
  52 F= -.23536666E+04 E0= -.23536666E+04  d E =-.252278E-02  mag=     8.0000
       N       E                     dE             d eps       ncg     rms          rms(c)
DAV:   1    -0.233257221839E+04    0.40420E-01   -0.17233E+00  4488   0.905E-01    0.472E-01
RMM:   2    -0.233260806821E+04   -0.35850E-01   -0.36502E-01  6346   0.189E-01    0.326E-01
RMM:   3    -0.233261117359E+04   -0.31054E-02   -0.34597E-02  5153   0.778E-02    0.186E-01
RMM:   4    -0.233261116645E+04    0.71471E-05   -0.40982E-03  3383   0.171E-02    0.125E-01
RMM:   5    -0.233261105562E+04    0.11082E-03   -0.29172E-04  3096   0.816E-03    0.763E-02
RMM:   6    -0.233261102841E+04    0.27213E-04   -0.24074E-04  3186   0.749E-03    0.660E-02
RMM:   7    -0.233261100433E+04    0.24083E-04   -0.99198E-05  3047   0.597E-03    0.332E-02
RMM:   8    -0.233261099722E+04    0.71134E-05   -0.27860E-05  2903   0.359E-03
  53 F= -.23536645E+04 E0= -.23536645E+04  d E =0.209308E-02  mag=     8.0000
       N       E                     dE             d eps       ncg     rms          rms(c)
DAV:   1    -0.233261023767E+04    0.76666E-03   -0.25731E-02  4576   0.117E-01    0.577E-02
RMM:   2    -0.233261075207E+04   -0.51440E-03   -0.52758E-03  5249   0.248E-02    0.372E-02
RMM:   3    -0.233261079765E+04   -0.45580E-04   -0.49359E-04  2921   0.107E-02    0.200E-02
RMM:   4    -0.233261079969E+04   -0.20372E-05   -0.62074E-05  2885   0.284E-03
  54 F= -.23536642E+04 E0= -.23536642E+04  d E =0.258538E-03  mag=     8.0000
       N       E                     dE             d eps       ncg     rms          rms(c)
DAV:   1    -0.233260843969E+04    0.23580E-02   -0.12633E-01  4492   0.245E-01    0.130E-01
RMM:   2    -0.233261105821E+04   -0.26185E-02   -0.26829E-02  5933   0.508E-02    0.789E-02
RMM:   3    -0.233261128020E+04   -0.22199E-03   -0.23350E-03  3080   0.214E-02    0.405E-02
RMM:   4    -0.233261128310E+04   -0.29018E-05   -0.29257E-04  2983   0.537E-03    0.298E-02
RMM:   5    -0.233261127554E+04    0.75659E-05   -0.18613E-05  2715   0.251E-03
  55 F= -.23536648E+04 E0= -.23536648E+04  d E =-.603563E-03  mag=     8.0000
       N       E                     dE             d eps       ncg     rms          rms(c)
DAV:   1    -0.233261129427E+04   -0.11167E-04   -0.14843E-03  4640   0.288E-02    0.170E-02
RMM:   2    -0.233261132937E+04   -0.35097E-04   -0.32366E-04  3103   0.647E-03    0.272E-02
RMM:   3    -0.233261132686E+04    0.25123E-05   -0.35826E-05  2575   0.379E-03
  56 F= -.23536649E+04 E0= -.23536649E+04  d E =-.657182E-04  mag=     8.0000
       N       E                     dE             d eps       ncg     rms          rms(c)
DAV:   1    -0.233261038473E+04    0.94464E-03   -0.55730E-02  4496   0.164E-01    0.837E-02
RMM:   2    -0.233261154516E+04   -0.11604E-02   -0.11824E-02  5605   0.340E-02    0.534E-02
RMM:   3    -0.233261164199E+04   -0.96834E-04   -0.10350E-03  2961   0.145E-02    0.291E-02
RMM:   4    -0.233261164282E+04   -0.82992E-06   -0.13335E-04  2924   0.380E-03    0.238E-02
RMM:   5    -0.233261163847E+04    0.43490E-05   -0.11215E-05  2612   0.200E-03
  57 F= -.23536653E+04 E0= -.23536653E+04  d E =-.397419E-03  mag=     8.0000
       N       E                     dE             d eps       ncg     rms          rms(c)
DAV:   1    -0.233260676972E+04    0.48731E-02   -0.24696E-01  4520   0.345E-01    0.177E-01
RMM:   2    -0.233261185844E+04   -0.50887E-02   -0.52067E-02  6187   0.709E-02    0.107E-01
RMM:   3    -0.233261229048E+04   -0.43203E-03   -0.45305E-03  3302   0.289E-02    0.576E-02
RMM:   4    -0.233261229644E+04   -0.59685E-05   -0.57439E-04  3019   0.722E-03    0.471E-02
RMM:   5    -0.233261228016E+04    0.16279E-04   -0.44067E-05  2851   0.354E-03    0.263E-02
RMM:   6    -0.233261227775E+04    0.24097E-05   -0.36338E-05  2921   0.327E-03
  58 F= -.23536661E+04 E0= -.23536661E+04  d E =-.817600E-03  mag=     8.0000
       N       E                     dE             d eps       ncg     rms          rms(c)
DAV:   1    -0.233260684692E+04    0.54332E-02   -0.27192E-01  4488   0.363E-01    0.185E-01
RMM:   2    -0.233261243526E+04   -0.55883E-02   -0.57274E-02  6036   0.740E-02    0.109E-01
RMM:   3    -0.233261292090E+04   -0.48564E-03   -0.50277E-03  3463   0.335E-02    0.587E-02
RMM:   4    -0.233261293238E+04   -0.11475E-04   -0.63393E-04  3039   0.748E-03    0.502E-02
RMM:   5    -0.233261291521E+04    0.17170E-04   -0.47933E-05  2868   0.358E-03    0.302E-02
RMM:   6    -0.233261291098E+04    0.42305E-05   -0.41326E-05  2893   0.336E-03
  59 F= -.23536669E+04 E0= -.23536669E+04  d E =-.821118E-03  mag=     8.0000
       N       E                     dE             d eps       ncg     rms          rms(c)
DAV:   1    -0.233260717392E+04    0.57413E-02   -0.23338E-01  4488   0.336E-01    0.174E-01
RMM:   2    -0.233261198670E+04   -0.48128E-02   -0.48842E-02  6198   0.699E-02    0.128E-01
RMM:   3    -0.233261237130E+04   -0.38460E-03   -0.44390E-03  3384   0.285E-02    0.716E-02
RMM:   4    -0.233261236061E+04    0.10697E-04   -0.54573E-04  3000   0.720E-03    0.456E-02
RMM:   5    -0.233261234644E+04    0.14164E-04   -0.37654E-05  2834   0.330E-03    0.295E-02
RMM:   6    -0.233261234264E+04    0.38027E-05   -0.32781E-05  2855   0.311E-03
  60 F= -.23536662E+04 E0= -.23536662E+04  d E =0.742344E-03  mag=     8.0000
       N       E                     dE             d eps       ncg     rms          rms(c)
DAV:   1    -0.233261103122E+04    0.13152E-02   -0.73160E-02  4492   0.185E-01    0.978E-02
RMM:   2    -0.233261255845E+04   -0.15272E-02   -0.15561E-02  5842   0.398E-02    0.675E-02
RMM:   3    -0.233261268353E+04   -0.12508E-03   -0.13714E-03  3005   0.166E-02    0.413E-02
RMM:   4    -0.233261267780E+04    0.57302E-05   -0.17305E-04  2935   0.449E-03    0.248E-02
RMM:   5    -0.233261267311E+04    0.46893E-05   -0.11836E-05  2688   0.204E-03
  61 F= -.23536666E+04 E0= -.23536666E+04  d E =-.429043E-03  mag=     8.0000
       N       E                     dE             d eps       ncg     rms          rms(c)
DAV:   1    -0.233261264721E+04    0.30587E-04   -0.56664E-03  4496   0.548E-02    0.284E-02
RMM:   2    -0.233261276700E+04   -0.11979E-03   -0.11832E-03  3735   0.121E-02    0.324E-02
RMM:   3    -0.233261277085E+04   -0.38532E-05   -0.10139E-04  2812   0.601E-03    0.147E-02
RMM:   4    -0.233261277042E+04    0.42720E-06   -0.13764E-05  2456   0.174E-03
  62 F= -.23536667E+04 E0= -.23536667E+04  d E =-.126357E-03  mag=     8.0000
       N       E                     dE             d eps       ncg     rms          rms(c)
DAV:   1    -0.233261231713E+04    0.45372E-03   -0.29792E-02  4496   0.119E-01    0.599E-02
RMM:   2    -0.233261293252E+04   -0.61539E-03   -0.63099E-03  5145   0.247E-02    0.336E-02
RMM:   3    -0.233261298310E+04   -0.50586E-04   -0.52011E-04  2924   0.110E-02    0.171E-02
RMM:   4    -0.233261298566E+04   -0.25569E-05   -0.69060E-05  2845   0.277E-03
  63 F= -.23536670E+04 E0= -.23536670E+04  d E =-.278164E-03  mag=     8.0000
       N       E                     dE             d eps       ncg     rms          rms(c)
DAV:   1    -0.233261013162E+04    0.28515E-02   -0.11004E-01  4488   0.228E-01    0.121E-01
RMM:   2    -0.233261238957E+04   -0.22579E-02   -0.23210E-02  5910   0.479E-02    0.684E-02
RMM:   3    -0.233261258623E+04   -0.19666E-03   -0.20082E-03  3044   0.197E-02    0.361E-02
RMM:   4    -0.233261259100E+04   -0.47721E-05   -0.25253E-04  2959   0.503E-03    0.269E-02
RMM:   5    -0.233261258530E+04    0.57039E-05   -0.16137E-05  2669   0.234E-03
  64 F= -.23536665E+04 E0= -.23536665E+04  d E =0.522713E-03  mag=     8.0000
       N       E                     dE             d eps       ncg     rms          rms(c)
DAV:   1    -0.233261257436E+04    0.16646E-04   -0.35351E-03  4280   0.417E-02    0.264E-02
RMM:   2    -0.233261265197E+04   -0.77610E-04   -0.75551E-04  3396   0.945E-03    0.309E-02
RMM:   3    -0.233261265331E+04   -0.13422E-05   -0.81793E-05  2648   0.521E-03
  65 F= -.23536666E+04 E0= -.23536666E+04  d E =-.891462E-04  mag=     8.0000
       N       E                     dE             d eps       ncg     rms          rms(c)
DAV:   1    -0.233261246690E+04    0.18507E-03   -0.15886E-02  4440   0.882E-02    0.446E-02
RMM:   2    -0.233261279507E+04   -0.32817E-03   -0.33401E-03  4706   0.187E-02    0.307E-02
RMM:   3    -0.233261282252E+04   -0.27454E-04   -0.29618E-04  2882   0.856E-03    0.187E-02
RMM:   4    -0.233261282223E+04    0.28947E-06   -0.39973E-05  2609   0.238E-03
  66 F= -.23536668E+04 E0= -.23536668E+04  d E =-.208215E-03  mag=     8.0000
       N       E                     dE             d eps       ncg     rms          rms(c)
DAV:   1    -0.233261283997E+04   -0.17452E-04   -0.50877E-04  4392   0.175E-02    0.962E-03
RMM:   2    -0.233261285015E+04   -0.10173E-04   -0.10277E-04  2770   0.407E-03    0.938E-03
RMM:   3    -0.233261285069E+04   -0.54293E-06   -0.10659E-05  2280   0.260E-03
  67 F= -.23536668E+04 E0= -.23536668E+04  d E =-.356470E-04  mag=     8.0000
       N       E                     dE             d eps       ncg     rms          rms(c)
DAV:   1    -0.233261282708E+04    0.23062E-04   -0.21552E-04  4286   0.118E-02    0.674E-03
RMM:   2    -0.233261283103E+04   -0.39426E-05   -0.42481E-05  2420   0.278E-03
  68 F= -.23536668E+04 E0= -.23536668E+04  d E =0.217701E-04  mag=     8.0000
       N       E                     dE             d eps       ncg     rms          rms(c)
DAV:   1    -0.233261274135E+04    0.85739E-04   -0.16530E-03  4200   0.294E-02    0.155E-02
RMM:   2    -0.233261277677E+04   -0.35427E-04   -0.35836E-04  3060   0.715E-03    0.136E-02
RMM:   3    -0.233261277948E+04   -0.27054E-05   -0.34858E-05  2338   0.415E-03
  69 F= -.23536667E+04 E0= -.23536667E+04  d E =0.657315E-04  mag=     8.0000
       N       E                     dE             d eps       ncg     rms          rms(c)
DAV:   1    -0.233261228598E+04    0.49080E-03   -0.15064E-02  4488   0.875E-02    0.430E-02
RMM:   2    -0.233261260512E+04   -0.31915E-03   -0.32559E-03  4725   0.184E-02    0.255E-02
RMM:   3    -0.233261263089E+04   -0.25764E-04   -0.26489E-04  2878   0.832E-03    0.135E-02
RMM:   4    -0.233261263248E+04   -0.15957E-05   -0.37781E-05  2678   0.224E-03
  70 F= -.23536665E+04 E0= -.23536665E+04  d E =0.194948E-03  mag=     8.0000
       N       E                     dE             d eps       ncg     rms          rms(c)
DAV:   1    -0.233261170820E+04    0.92269E-03   -0.31367E-02  4492   0.128E-01    0.612E-02
RMM:   2    -0.233261236460E+04   -0.65640E-03   -0.66852E-03  5254   0.262E-02    0.396E-02
RMM:   3    -0.233261241823E+04   -0.53632E-04   -0.56376E-04  2993   0.127E-02    0.243E-02
RMM:   4    -0.233261241852E+04   -0.28654E-06   -0.74566E-05  2910   0.313E-03
  71 F= -.23536662E+04 E0= -.23536662E+04  d E =0.284622E-03  mag=     8.0000
       N       E                     dE             d eps       ncg     rms          rms(c)
DAV:   1    -0.233261196848E+04    0.44975E-03   -0.13473E-02  4456   0.840E-02    0.387E-02
RMM:   2    -0.233261225020E+04   -0.28172E-03   -0.28595E-03  4497   0.173E-02    0.255E-02
RMM:   3    -0.233261227337E+04   -0.23170E-04   -0.24579E-04  2904   0.892E-03    0.157E-02
RMM:   4    -0.233261227435E+04   -0.97313E-06   -0.32970E-05  2721   0.227E-03
  72 F= -.23536661E+04 E0= -.23536661E+04  d E =0.190627E-03  mag=     8.0000
       N       E                     dE             d eps       ncg     rms          rms(c)
DAV:   1    -0.233261226442E+04    0.89510E-05   -0.32271E-05  4232   0.472E-03    0.658E-03
RMM:   2    -0.233261226529E+04   -0.86629E-06   -0.85589E-06  2063   0.178E-03
  73 F= -.23536660E+04 E0= -.23536660E+04  d E =0.114900E-04  mag=     8.0000
       N       E                     dE             d eps       ncg     rms          rms(c)
DAV:   1    -0.233261226466E+04   -0.24019E-06   -0.20759E-04  4240   0.157E-02    0.582E-03
RMM:   2    -0.233261226587E+04   -0.12124E-05   -0.12917E-05  2380   0.302E-03
  74 F= -.23536660E+04 E0= -.23536660E+04  d E =-.245356E-05  mag=     8.0000
       N       E                     dE             d eps       ncg     rms          rms(c)
DAV:   1    -0.233261193443E+04    0.33023E-03   -0.12924E-02  4492   0.104E-01    0.354E-02
RMM:   2    -0.233261212704E+04   -0.19261E-03   -0.19769E-03  5089   0.195E-02    0.222E-02
RMM:   3    -0.233261214135E+04   -0.14316E-04   -0.15951E-04  2849   0.800E-03    0.136E-02
RMM:   4    -0.233261214136E+04   -0.10317E-07   -0.21500E-05  2597   0.251E-03
  75 F= -.23536659E+04 E0= -.23536659E+04  d E =0.169865E-03  mag=     8.0000
       N       E                     dE             d eps       ncg     rms          rms(c)
DAV:   1    -0.233261211480E+04    0.26553E-04   -0.29822E-04  4568   0.160E-02    0.670E-03
RMM:   2    -0.233261211970E+04   -0.49018E-05   -0.49097E-05  2590   0.349E-03
  76 F= -.23536658E+04 E0= -.23536658E+04  d E =0.284363E-04  mag=     8.0000
       N       E                     dE             d eps       ncg     rms          rms(c)
DAV:   1    -0.233261208001E+04    0.34789E-04   -0.99764E-03  4496   0.912E-02    0.314E-02
RMM:   2    -0.233261222504E+04   -0.14502E-03   -0.15068E-03  4782   0.169E-02    0.150E-02
RMM:   3    -0.233261223681E+04   -0.11772E-04   -0.12004E-04  2730   0.729E-03    0.709E-03
RMM:   4    -0.233261223752E+04   -0.70824E-06   -0.15164E-05  2430   0.210E-03
  77 F= -.23536660E+04 E0= -.23536660E+04  d E =-.154738E-03  mag=     8.0000
       N       E                     dE             d eps       ncg     rms          rms(c)
DAV:   1    -0.233260125033E+04    0.10986E-01   -0.60303E-01  4488   0.626E-01    0.259E-01
RMM:   2    -0.233261227841E+04   -0.11028E-01   -0.11330E-01  6073   0.119E-01    0.148E-01
RMM:   3    -0.233261319152E+04   -0.91311E-03   -0.94565E-03  4212   0.509E-02    0.819E-02
RMM:   4    -0.233261321827E+04   -0.26747E-04   -0.12235E-03  3173   0.109E-02    0.734E-02
RMM:   5    -0.233261317989E+04    0.38377E-04   -0.10421E-04  2981   0.586E-03    0.404E-02
RMM:   6    -0.233261316559E+04    0.14304E-04   -0.76393E-05  3105   0.535E-03    0.166E-02
RMM:   7    -0.233261316488E+04    0.70789E-06   -0.12626E-05  2903   0.401E-03
  78 F= -.23536672E+04 E0= -.23536672E+04  d E =-.122342E-02  mag=     8.0000
       N       E                     dE             d eps       ncg     rms          rms(c)
DAV:   1    -0.233261320713E+04   -0.41541E-04   -0.94700E-03  4624   0.102E-01    0.179E-02
RMM:   2    -0.233261322982E+04   -0.22695E-04   -0.23816E-04  4481   0.149E-02    0.121E-02
RMM:   3    -0.233261322936E+04    0.46470E-06   -0.18231E-05  2929   0.811E-03
  79 F= -.23536673E+04 E0= -.23536673E+04  d E =-.637594E-04  mag=     8.0000
       N       E                     dE             d eps       ncg     rms          rms(c)
DAV:   1    -0.233261312394E+04    0.10589E-03   -0.18622E-02  4520   0.131E-01    0.398E-02
RMM:   2    -0.233261334997E+04   -0.22603E-03   -0.23521E-03  5336   0.222E-02    0.233E-02
RMM:   3    -0.233261336658E+04   -0.16617E-04   -0.19430E-04  2927   0.938E-03    0.147E-02
RMM:   4    -0.233261336694E+04   -0.35498E-06   -0.27047E-05  2852   0.264E-03
  80 F= -.23536675E+04 E0= -.23536675E+04  d E =-.182619E-03  mag=     8.0000
       N       E                     dE             d eps       ncg     rms          rms(c)
DAV:   1    -0.233261304206E+04    0.32453E-03   -0.38439E-02  4488   0.187E-01    0.554E-02
RMM:   2    -0.233261352313E+04   -0.48107E-03   -0.49555E-03  5582   0.316E-02    0.340E-02
RMM:   3    -0.233261355858E+04   -0.35450E-04   -0.40860E-04  3126   0.146E-02    0.234E-02
RMM:   4    -0.233261355849E+04    0.89552E-07   -0.55886E-05  2925   0.346E-03
  81 F= -.23536677E+04 E0= -.23536677E+04  d E =-.256083E-03  mag=     8.0000
       N       E                     dE             d eps       ncg     rms          rms(c)
DAV:   1    -0.233261350506E+04    0.53517E-04   -0.13203E-03  4680   0.288E-02    0.184E-02
RMM:   2    -0.233261353218E+04   -0.27120E-04   -0.28680E-04  3121   0.689E-03    0.119E-02
RMM:   3    -0.233261353505E+04   -0.28674E-05   -0.29697E-05  2608   0.415E-03
  82 F= -.23536677E+04 E0= -.23536677E+04  d E =0.432730E-04  mag=     8.0000
       N       E                     dE             d eps       ncg     rms          rms(c)
DAV:   1    -0.233261349481E+04    0.37376E-04   -0.14861E-02  4496   0.119E-01    0.333E-02
RMM:   2    -0.233261365086E+04   -0.15605E-03   -0.16255E-03  5050   0.195E-02    0.181E-02
RMM:   3    -0.233261366166E+04   -0.10808E-04   -0.12867E-04  2924   0.972E-03    0.116E-02
RMM:   4    -0.233261366201E+04   -0.34392E-06   -0.16789E-05  2730   0.227E-03
  83 F= -.23536678E+04 E0= -.23536678E+04  d E =-.158918E-03  mag=     8.0000
       N       E                     dE             d eps       ncg     rms          rms(c)
DAV:   1    -0.233261368207E+04   -0.20405E-04   -0.48861E-03  4528   0.670E-02    0.196E-02
RMM:   2    -0.233261373731E+04   -0.55239E-04   -0.57273E-04  4098   0.116E-02    0.123E-02
RMM:   3    -0.233261374121E+04   -0.39047E-05   -0.47369E-05  2738   0.591E-03
  84 F= -.23536679E+04 E0= -.23536679E+04  d E =-.953838E-04  mag=     8.0000
       N       E                     dE             d eps       ncg     rms          rms(c)
DAV:   1    -0.233261376972E+04   -0.32407E-04   -0.16635E-03  4528   0.398E-02    0.138E-02
RMM:   2    -0.233261378872E+04   -0.19002E-04   -0.18912E-04  3169   0.739E-03    0.153E-02
RMM:   3    -0.233261378914E+04   -0.42643E-06   -0.20117E-05  2537   0.410E-03
  85 F= -.23536680E+04 E0= -.23536680E+04  d E =-.564621E-04  mag=     8.0000
       N       E                     dE             d eps       ncg     rms          rms(c)
DAV:   1    -0.233261383037E+04   -0.41653E-04   -0.60919E-03  4528   0.788E-02    0.199E-02
RMM:   2    -0.233261387579E+04   -0.45421E-04   -0.47516E-04  4461   0.130E-02    0.127E-02
RMM:   3    -0.233261387833E+04   -0.25338E-05   -0.39445E-05  2753   0.612E-03
  86 F= -.23536681E+04 E0= -.23536681E+04  d E =-.979593E-04  mag=     8.0000
       N       E                     dE             d eps       ncg     rms          rms(c)
DAV:   1    -0.233260401600E+04    0.98598E-02   -0.71582E-01  4488   0.808E-01    0.238E-01
RMM:   2    -0.233261239007E+04   -0.83741E-02   -0.86626E-02  5604   0.135E-01    0.136E-01
RMM:   3    -0.233261299362E+04   -0.60355E-03   -0.69424E-03  4579   0.597E-02    0.839E-02
RMM:   4    -0.233261300029E+04   -0.66698E-05   -0.90389E-04  3545   0.117E-02    0.739E-02
RMM:   5    -0.233261295519E+04    0.45105E-04   -0.11105E-04  3072   0.734E-03    0.366E-02
RMM:   6    -0.233261294522E+04    0.99656E-05   -0.74796E-05  3299   0.649E-03
  87 F= -.23536669E+04 E0= -.23536669E+04  d E =0.116164E-02  mag=     8.0000
       N       E                     dE             d eps       ncg     rms          rms(c)
DAV:   1    -0.233261251846E+04    0.43673E-03   -0.44085E-02  4488   0.189E-01    0.648E-02
RMM:   2    -0.233261316369E+04   -0.64523E-03   -0.66064E-03  5807   0.366E-02    0.455E-02
RMM:   3    -0.233261321244E+04   -0.48750E-04   -0.56794E-04  3015   0.131E-02    0.326E-02
RMM:   4    -0.233261320633E+04    0.61162E-05   -0.70067E-05  2893   0.437E-03
  88 F= -.23536673E+04 E0= -.23536673E+04  d E =-.322988E-03  mag=     8.0000
       N       E                     dE             d eps       ncg     rms          rms(c)
DAV:   1    -0.233261323485E+04   -0.22407E-04   -0.93609E-03  4492   0.958E-02    0.256E-02
RMM:   2    -0.233261331868E+04   -0.83833E-04   -0.87422E-04  4810   0.159E-02    0.192E-02
RMM:   3    -0.233261332361E+04   -0.49321E-05   -0.74489E-05  2842   0.738E-03
  89 F= -.23536674E+04 E0= -.23536674E+04  d E =-.133140E-03  mag=     8.0000
       N       E                     dE             d eps       ncg     rms          rms(c)
DAV:   1    -0.233261334660E+04   -0.27916E-04   -0.88245E-03  4488   0.932E-02    0.266E-02
RMM:   2    -0.233261342963E+04   -0.83030E-04   -0.86156E-04  4822   0.158E-02    0.199E-02
RMM:   3    -0.233261343499E+04   -0.53640E-05   -0.75486E-05  2862   0.676E-03
  90 F= -.23536675E+04 E0= -.23536675E+04  d E =-.130332E-03  mag=     8.0000
       N       E                     dE             d eps       ncg     rms          rms(c)
DAV:   1    -0.233261346614E+04   -0.36510E-04   -0.57595E-03  4496   0.753E-02    0.223E-02
RMM:   2    -0.233261352012E+04   -0.53984E-04   -0.56209E-04  4321   0.131E-02    0.175E-02
RMM:   3    -0.233261352452E+04   -0.43952E-05   -0.57333E-05  2788   0.602E-03
  91 F= -.23536676E+04 E0= -.23536676E+04  d E =-.104797E-03  mag=     8.0000
       N       E                     dE             d eps       ncg     rms          rms(c)
DAV:   1    -0.233261348736E+04    0.32758E-04   -0.12485E-02  4488   0.969E-02    0.362E-02
RMM:   2    -0.233261366823E+04   -0.18087E-03   -0.18607E-03  4907   0.183E-02    0.242E-02
RMM:   3    -0.233261368270E+04   -0.14470E-04   -0.16109E-04  2881   0.772E-03    0.173E-02
RMM:   4    -0.233261368218E+04    0.52122E-06   -0.23587E-05  2768   0.260E-03
  92 F= -.23536678E+04 E0= -.23536678E+04  d E =-.180215E-03  mag=     8.0000
       N       E                     dE             d eps       ncg     rms          rms(c)
DAV:   1    -0.233261368788E+04   -0.51802E-05   -0.70680E-03  4460   0.770E-02    0.245E-02
RMM:   2    -0.233261378044E+04   -0.92560E-04   -0.95566E-04  4426   0.138E-02    0.149E-02
RMM:   3    -0.233261378767E+04   -0.72269E-05   -0.81572E-05  2797   0.668E-03
  93 F= -.23536679E+04 E0= -.23536679E+04  d E =-.126488E-03  mag=     8.0000
       N       E                     dE             d eps       ncg     rms          rms(c)
DAV:   1    -0.233261313644E+04    0.64400E-03   -0.50378E-02  4488   0.226E-01    0.546E-02
RMM:   2    -0.233261351549E+04   -0.37905E-03   -0.39579E-03  5439   0.355E-02    0.322E-02
RMM:   3    -0.233261353719E+04   -0.21694E-04   -0.30298E-04  3295   0.156E-02    0.269E-02
RMM:   4    -0.233261353363E+04    0.35599E-05   -0.38710E-05  2885   0.375E-03
  94 F= -.23536676E+04 E0= -.23536676E+04  d E =0.288579E-03  mag=     8.0000
       N       E                     dE             d eps       ncg     rms          rms(c)
DAV:   1    -0.233261355345E+04   -0.16260E-04   -0.24263E-03  4288   0.404E-02    0.187E-02
RMM:   2    -0.233261359268E+04   -0.39232E-04   -0.40788E-04  3326   0.866E-03    0.116E-02
RMM:   3    -0.233261359636E+04   -0.36798E-05   -0.37125E-05  2386   0.473E-03
  95 F= -.23536677E+04 E0= -.23536677E+04  d E =-.757217E-04  mag=     8.0000
       N       E                     dE             d eps       ncg     rms          rms(c)
DAV:   1    -0.233261354179E+04    0.50886E-04   -0.80477E-03  4364   0.609E-02    0.315E-02
RMM:   2    -0.233261370319E+04   -0.16139E-03   -0.16572E-03  3844   0.137E-02    0.182E-02
RMM:   3    -0.233261371725E+04   -0.14069E-04   -0.14533E-04  2747   0.698E-03    0.105E-02
RMM:   4    -0.233261371794E+04   -0.68254E-06   -0.20224E-05  2314   0.187E-03
  96 F= -.23536679E+04 E0= -.23536679E+04  d E =-.142634E-03  mag=     8.0000
       N       E                     dE             d eps       ncg     rms          rms(c)
DAV:   1    -0.233261330307E+04    0.41419E-03   -0.44341E-02  4488   0.181E-01    0.640E-02
RMM:   2    -0.233261395272E+04   -0.64965E-03   -0.66879E-03  5572   0.322E-02    0.372E-02
RMM:   3    -0.233261400235E+04   -0.49633E-04   -0.54103E-04  3052   0.146E-02    0.226E-02
RMM:   4    -0.233261400450E+04   -0.21421E-05   -0.74106E-05  2926   0.351E-03
  97 F= -.23536682E+04 E0= -.23536682E+04  d E =-.336558E-03  mag=     8.0000
       N       E                     dE             d eps       ncg     rms          rms(c)
DAV:   1    -0.233261318074E+04    0.82162E-03   -0.64760E-02  4488   0.201E-01    0.820E-02
RMM:   2    -0.233261426806E+04   -0.10873E-02   -0.11173E-02  5587   0.376E-02    0.499E-02
RMM:   3    -0.233261435565E+04   -0.87597E-04   -0.93093E-04  3172   0.177E-02    0.321E-02
RMM:   4    -0.233261435836E+04   -0.27043E-05   -0.12645E-04  2943   0.422E-03    0.300E-02
RMM:   5    -0.233261435167E+04    0.66891E-05   -0.15404E-05  2771   0.239E-03
  98 F= -.23536686E+04 E0= -.23536686E+04  d E =-.406405E-03  mag=     8.0000
       N       E                     dE             d eps       ncg     rms          rms(c)
DAV:   1    -0.233261434414E+04    0.14213E-04   -0.11080E-02  4524   0.942E-02    0.341E-02
RMM:   2    -0.233261449494E+04   -0.15079E-03   -0.15383E-03  4862   0.173E-02    0.288E-02
RMM:   3    -0.233261450376E+04   -0.88194E-05   -0.12675E-04  2898   0.712E-03    0.186E-02
RMM:   4    -0.233261450249E+04    0.12646E-05   -0.18429E-05  2775   0.236E-03
  99 F= -.23536688E+04 E0= -.23536688E+04  d E =-.164825E-03  mag=     8.0000
       N       E                     dE             d eps       ncg     rms          rms(c)
DAV:   1    -0.233261317860E+04    0.13252E-02   -0.92692E-02  4488   0.233E-01    0.100E-01
RMM:   2    -0.233261478093E+04   -0.16023E-02   -0.16524E-02  5853   0.446E-02    0.561E-02
RMM:   3    -0.233261490605E+04   -0.12513E-03   -0.12982E-03  3096   0.191E-02    0.319E-02
RMM:   4    -0.233261491404E+04   -0.79929E-05   -0.17943E-04  2984   0.476E-03    0.312E-02
RMM:   5    -0.233261490716E+04    0.68807E-05   -0.20966E-05  2762   0.272E-03
 100 F= -.23536692E+04 E0= -.23536692E+04  d E =-.478844E-03  mag=     8.0000
       N       E                     dE             d eps       ncg     rms          rms(c)
DAV:   1    -0.233261475336E+04    0.16069E-03   -0.36642E-03  4416   0.415E-02    0.217E-02
RMM:   2    -0.233261482874E+04   -0.75381E-04   -0.76872E-04  3354   0.960E-03    0.126E-02
RMM:   3    -0.233261483587E+04   -0.71283E-05   -0.69887E-05  2715   0.532E-03
 101 F= -.23536692E+04 E0= -.23536692E+04  d E =0.855418E-04  mag=     8.0000
       N       E                     dE             d eps       ncg     rms          rms(c)
DAV:   1    -0.233261084235E+04    0.39864E-02   -0.20822E-01  4488   0.379E-01    0.143E-01
RMM:   2    -0.233261399590E+04   -0.31536E-02   -0.32513E-02  5930   0.684E-02    0.818E-02
RMM:   3    -0.233261423924E+04   -0.24334E-03   -0.26402E-03  3544   0.294E-02    0.470E-02
RMM:   4    -0.233261424924E+04   -0.10009E-04   -0.35351E-04  3009   0.678E-03    0.464E-02
RMM:   5    -0.233261423351E+04    0.15738E-04   -0.44271E-05  2899   0.407E-03    0.240E-02
RMM:   6    -0.233261422937E+04    0.41414E-05   -0.26629E-05  2957   0.345E-03
 102 F= -.23536685E+04 E0= -.23536684E+04  d E =0.708004E-03  mag=     8.0000
       N       E                     dE             d eps       ncg     rms          rms(c)
DAV:   1    -0.233261423179E+04    0.17211E-05   -0.33866E-03  4336   0.414E-02    0.217E-02
RMM:   2    -0.233261429989E+04   -0.68103E-04   -0.68637E-04  3417   0.985E-03    0.201E-02
RMM:   3    -0.233261430390E+04   -0.40140E-05   -0.62903E-05  2665   0.534E-03
 103 F= -.23536685E+04 E0= -.23536685E+04  d E =-.945364E-04  mag=     8.0000
       N       E                     dE             d eps       ncg     rms          rms(c)
DAV:   1    -0.233261410753E+04    0.19236E-03   -0.20549E-02  4488   0.110E-01    0.474E-02
RMM:   2    -0.233261447181E+04   -0.36428E-03   -0.37372E-03  5148   0.217E-02    0.284E-02
RMM:   3    -0.233261450077E+04   -0.28962E-04   -0.31033E-04  2894   0.891E-03    0.168E-02
RMM:   4    -0.233261450205E+04   -0.12869E-05   -0.43499E-05  2735   0.259E-03
 104 F= -.23536688E+04 E0= -.23536688E+04  d E =-.233892E-03  mag=     8.0000
       N       E                     dE             d eps       ncg     rms          rms(c)
DAV:   1    -0.233261393718E+04    0.56359E-03   -0.21846E-02  4488   0.122E-01    0.490E-02
RMM:   2    -0.233261426958E+04   -0.33240E-03   -0.34653E-03  5308   0.229E-02    0.253E-02
RMM:   3    -0.233261429898E+04   -0.29400E-04   -0.29276E-04  2890   0.930E-03    0.155E-02
RMM:   4    -0.233261430003E+04   -0.10592E-05   -0.38085E-05  2583   0.271E-03
 105 F= -.23536685E+04 E0= -.23536685E+04  d E =0.236666E-03  mag=     8.0000
       N       E                     dE             d eps       ncg     rms          rms(c)
DAV:   1    -0.233261430035E+04   -0.13782E-05   -0.55859E-06  2776   0.300E-03    0.732E-03
RMM:   2    -0.233261430047E+04   -0.11250E-06   -0.29596E-06  1953   0.153E-03
 106 F= -.23536685E+04 E0= -.23536685E+04  d E =-.314064E-06  mag=     8.0000
       N       E                     dE             d eps       ncg     rms          rms(c)
DAV:   1    -0.233261435898E+04   -0.58623E-04   -0.17511E-03  4248   0.319E-02    0.129E-02
RMM:   2    -0.233261437238E+04   -0.13406E-04   -0.13940E-04  2908   0.614E-03    0.121E-02
RMM:   3    -0.233261437271E+04   -0.32604E-06   -0.13950E-05  2276   0.337E-03
 107 F= -.23536686E+04 E0= -.23536686E+04  d E =-.703320E-04  mag=     8.0000
       N       E                     dE             d eps       ncg     rms          rms(c)
DAV:   1    -0.233261440414E+04   -0.31757E-04   -0.62790E-03  4184   0.518E-02    0.268E-02
RMM:   2    -0.233261449634E+04   -0.92204E-04   -0.96141E-04  3574   0.107E-02    0.158E-02
RMM:   3    -0.233261450348E+04   -0.71383E-05   -0.81422E-05  2626   0.554E-03
 108 F= -.23536688E+04 E0= -.23536688E+04  d E =-.144220E-03  mag=     8.0000
       N       E                     dE             d eps       ncg     rms          rms(c)
DAV:   1    -0.233261456133E+04   -0.64990E-04   -0.19099E-03  4176   0.301E-02    0.158E-02
RMM:   2    -0.233261458281E+04   -0.21472E-04   -0.22686E-04  3048   0.622E-03    0.108E-02
RMM:   3    -0.233261458451E+04   -0.17067E-05   -0.22487E-05  2424   0.361E-03
 109 F= -.23536688E+04 E0= -.23536688E+04  d E =-.824496E-04  mag=     8.0000
       N       E                     dE             d eps       ncg     rms          rms(c)
DAV:   1    -0.233261462579E+04   -0.42982E-04   -0.91394E-04  4128   0.199E-02    0.131E-02
RMM:   2    -0.233261463867E+04   -0.12879E-04   -0.12657E-04  2835   0.440E-03    0.145E-02
RMM:   3    -0.233261463857E+04    0.94224E-07   -0.12549E-05  2211   0.257E-03
 110 F= -.23536689E+04 E0= -.23536689E+04  d E =-.567362E-04  mag=     8.0000
       N       E                     dE             d eps       ncg     rms          rms(c)
DAV:   1    -0.233261469117E+04   -0.52501E-04   -0.14387E-03  4160   0.254E-02    0.133E-02
RMM:   2    -0.233261470696E+04   -0.15788E-04   -0.16594E-04  2918   0.510E-03    0.873E-03
RMM:   3    -0.233261470811E+04   -0.11534E-05   -0.15979E-05  2270   0.301E-03
 111 F= -.23536690E+04 E0= -.23536690E+04  d E =-.712760E-04  mag=     8.0000
       N       E                     dE             d eps       ncg     rms          rms(c)
DAV:   1    -0.233261475528E+04   -0.48322E-04   -0.15348E-02  4408   0.839E-02    0.385E-02
RMM:   2    -0.233261491840E+04   -0.16312E-03   -0.17073E-03  4398   0.154E-02    0.250E-02
RMM:   3    -0.233261492951E+04   -0.11108E-04   -0.14159E-04  2884   0.685E-03    0.184E-02
RMM:   4    -0.233261492900E+04    0.51242E-06   -0.22756E-05  2616   0.216E-03
 112 F= -.23536692E+04 E0= -.23536692E+04  d E =-.228221E-03  mag=     8.0000
       N       E                     dE             d eps       ncg     rms          rms(c)
DAV:   1    -0.233261442498E+04    0.50453E-03   -0.25742E-02  4472   0.111E-01    0.456E-02
RMM:   2    -0.233261463172E+04   -0.20674E-03   -0.21746E-03  4874   0.196E-02    0.323E-02
RMM:   3    -0.233261464568E+04   -0.13959E-04   -0.20732E-04  2913   0.877E-03    0.230E-02
RMM:   4    -0.233261464337E+04    0.23131E-05   -0.27245E-05  2728   0.266E-03
 113 F= -.23536689E+04 E0= -.23536689E+04  d E =0.282340E-03  mag=     8.0000
       N       E                     dE             d eps       ncg     rms          rms(c)
DAV:   1    -0.233261466343E+04   -0.17749E-04   -0.87429E-04  4072   0.190E-02    0.146E-02
RMM:   2    -0.233261468229E+04   -0.18863E-04   -0.17782E-04  2889   0.477E-03    0.194E-02
RMM:   3    -0.233261468120E+04    0.10927E-05   -0.19881E-05  2234   0.292E-03
 114 F= -.23536690E+04 E0= -.23536690E+04  d E =-.463219E-04  mag=     8.0000
       N       E                     dE             d eps       ncg     rms          rms(c)
DAV:   1    -0.233261469396E+04   -0.11665E-04   -0.38492E-03  4148   0.405E-02    0.211E-02
RMM:   2    -0.233261476438E+04   -0.70418E-04   -0.72248E-04  3343   0.892E-03    0.137E-02
RMM:   3    -0.233261477004E+04   -0.56621E-05   -0.61670E-05  2452   0.477E-03
 115 F= -.23536691E+04 E0= -.23536691E+04  d E =-.103321E-03  mag=     8.0000
       N       E                     dE             d eps       ncg     rms          rms(c)
DAV:   1    -0.233261469228E+04    0.72101E-04   -0.88224E-03  4240   0.608E-02    0.328E-02
RMM:   2    -0.233261487484E+04   -0.18257E-03   -0.18694E-03  3906   0.137E-02    0.194E-02
RMM:   3    -0.233261488998E+04   -0.15141E-04   -0.15634E-04  2730   0.647E-03    0.131E-02
RMM:   4    -0.233261489065E+04   -0.66562E-06   -0.22905E-05  2113   0.179E-03
 116 F= -.23536692E+04 E0= -.23536692E+04  d E =-.147605E-03  mag=     8.0000
       N       E                     dE             d eps       ncg     rms          rms(c)
DAV:   1    -0.233261480755E+04    0.82436E-04   -0.29442E-03  4304   0.434E-02    0.229E-02
RMM:   2    -0.233261487388E+04   -0.66333E-04   -0.69248E-04  3506   0.982E-03    0.122E-02
RMM:   3    -0.233261488005E+04   -0.61661E-05   -0.61202E-05  2408   0.510E-03
 117 F= -.23536692E+04 E0= -.23536692E+04  d E =0.370168E-04  mag=     8.0000
       N       E                     dE             d eps       ncg     rms          rms(c)
DAV:   1    -0.233261486212E+04    0.11765E-04   -0.14127E-03  4176   0.292E-02    0.153E-02
RMM:   2    -0.233261489341E+04   -0.31292E-04   -0.32532E-04  3039   0.646E-03    0.993E-03
RMM:   3    -0.233261489583E+04   -0.24276E-05   -0.26918E-05  2301   0.370E-03
 118 F= -.23536692E+04 E0= -.23536692E+04  d E =-.290915E-04  mag=     8.0000
       N       E                     dE             d eps       ncg     rms          rms(c)
DAV:   1    -0.233261485740E+04    0.36009E-04   -0.38829E-03  4296   0.454E-02    0.222E-02
RMM:   2    -0.233261494549E+04   -0.88087E-04   -0.89998E-04  3442   0.102E-02    0.130E-02
RMM:   3    -0.233261495310E+04   -0.76118E-05   -0.78264E-05  2533   0.545E-03
 119 F= -.23536693E+04 E0= -.23536693E+04  d E =-.819344E-04  mag=     8.0000
       N       E                     dE             d eps       ncg     rms          rms(c)
DAV:   1    -0.233261447700E+04    0.46848E-03   -0.25699E-02  4488   0.116E-01    0.564E-02
RMM:   2    -0.233261506222E+04   -0.58521E-03   -0.59628E-03  5322   0.252E-02    0.342E-02
RMM:   3    -0.233261510748E+04   -0.45267E-04   -0.46802E-04  2925   0.102E-02    0.194E-02
RMM:   4    -0.233261511004E+04   -0.25593E-05   -0.67587E-05  2848   0.286E-03
 120 F= -.23536695E+04 E0= -.23536695E+04  d E =-.206520E-03  mag=     8.0000
       N       E                     dE             d eps       ncg     rms          rms(c)
DAV:   1    -0.233261467821E+04    0.42927E-03   -0.20975E-02  4488   0.112E-01    0.489E-02
RMM:   2    -0.233261516711E+04   -0.48890E-03   -0.49429E-03  5247   0.234E-02    0.329E-02
RMM:   3    -0.233261520378E+04   -0.36671E-04   -0.38904E-04  2942   0.104E-02    0.202E-02
RMM:   4    -0.233261520447E+04   -0.68931E-06   -0.51970E-05  2823   0.272E-03
 121 F= -.23536696E+04 E0= -.23536696E+04  d E =-.145774E-03  mag=     8.0000
       N       E                     dE             d eps       ncg     rms          rms(c)
DAV:   1    -0.233261505701E+04    0.14677E-03   -0.75488E-03  4512   0.679E-02    0.280E-02
RMM:   2    -0.233261523587E+04   -0.17886E-03   -0.17978E-03  4185   0.145E-02    0.206E-02
RMM:   3    -0.233261524863E+04   -0.12755E-04   -0.14072E-04  2848   0.732E-03    0.132E-02
RMM:   4    -0.233261524895E+04   -0.32295E-06   -0.19222E-05  2596   0.198E-03
 122 F= -.23536697E+04 E0= -.23536697E+04  d E =-.775350E-04  mag=     8.0000
       N       E                     dE             d eps       ncg     rms          rms(c)
DAV:   1    -0.233261520958E+04    0.39049E-04   -0.23277E-03  4416   0.375E-02    0.153E-02
RMM:   2    -0.233261526535E+04   -0.55769E-04   -0.56010E-04  3243   0.831E-03    0.116E-02
RMM:   3    -0.233261526936E+04   -0.40104E-05   -0.45233E-05  2595   0.450E-03
 123 F= -.23536698E+04 E0= -.23536698E+04  d E =-.398204E-04  mag=     8.0000
       N       E                     dE             d eps       ncg     rms          rms(c)
DAV:   1    -0.233261530975E+04   -0.44401E-04   -0.84619E-04  4272   0.219E-02    0.107E-02
RMM:   2    -0.233261532094E+04   -0.11188E-04   -0.11204E-04  2861   0.491E-03    0.106E-02
RMM:   3    -0.233261532133E+04   -0.39347E-06   -0.11136E-05  2382   0.303E-03
 124 F= -.23536698E+04 E0= -.23536698E+04  d E =-.524056E-04  mag=     8.0000
       N       E                     dE             d eps       ncg     rms          rms(c)
DAV:   1    -0.233261260658E+04    0.27144E-02   -0.10032E-01  4488   0.238E-01    0.115E-01
RMM:   2    -0.233261490649E+04   -0.22999E-02   -0.23589E-02  6056   0.503E-02    0.640E-02
RMM:   3    -0.233261509092E+04   -0.18443E-03   -0.18493E-03  3127   0.207E-02    0.350E-02
RMM:   4    -0.233261510132E+04   -0.10405E-04   -0.24702E-04  2940   0.508E-03    0.262E-02
RMM:   5    -0.233261509606E+04    0.52594E-05   -0.12519E-05  2688   0.225E-03
 125 F= -.23536695E+04 E0= -.23536695E+04  d E =0.339706E-03  mag=     8.0000
       N       E                     dE             d eps       ncg     rms          rms(c)
DAV:   1    -0.233261466236E+04    0.43897E-03   -0.23026E-02  4456   0.105E-01    0.588E-02
RMM:   2    -0.233261520348E+04   -0.54112E-03   -0.54963E-03  5036   0.233E-02    0.453E-02
RMM:   3    -0.233261524270E+04   -0.39224E-04   -0.45605E-04  2957   0.112E-02    0.303E-02
RMM:   4    -0.233261523990E+04    0.27974E-05   -0.60471E-05  2617   0.287E-03
 126 F= -.23536697E+04 E0= -.23536697E+04  d E =-.187691E-03  mag=     8.0000
       N       E                     dE             d eps       ncg     rms          rms(c)
DAV:   1    -0.233261520053E+04    0.42173E-04   -0.15912E-03  4296   0.346E-02    0.200E-02
RMM:   2    -0.233261523250E+04   -0.31972E-04   -0.34215E-04  3154   0.776E-03    0.151E-02
RMM:   3    -0.233261523508E+04   -0.25762E-05   -0.35439E-05  2407   0.444E-03
 127 F= -.23536696E+04 E0= -.23536696E+04  d E =0.199741E-04  mag=     8.0000
       N       E                     dE             d eps       ncg     rms          rms(c)
DAV:   1    -0.233261517823E+04    0.54274E-04   -0.94545E-04  4192   0.217E-02    0.115E-02
RMM:   2    -0.233261520104E+04   -0.22816E-04   -0.23142E-04  2912   0.541E-03    0.803E-03
RMM:   3    -0.233261520318E+04   -0.21408E-05   -0.22865E-05  2243   0.331E-03
 128 F= -.23536696E+04 E0= -.23536696E+04  d E =0.414389E-04  mag=     8.0000
       N       E                     dE             d eps       ncg     rms          rms(c)
DAV:   1    -0.233261448697E+04    0.71407E-03   -0.22762E-02  4472   0.109E-01    0.533E-02
RMM:   2    -0.233261500324E+04   -0.51627E-03   -0.52709E-03  5227   0.236E-02    0.308E-02
RMM:   3    -0.233261504312E+04   -0.39875E-04   -0.40584E-04  2898   0.938E-03    0.171E-02
RMM:   4    -0.233261504567E+04   -0.25497E-05   -0.57581E-05  2733   0.266E-03
 129 F= -.23536694E+04 E0= -.23536694E+04  d E =0.197101E-03  mag=     8.0000
       N       E                     dE             d eps       ncg     rms          rms(c)
DAV:   1    -0.233261479248E+04    0.25064E-03   -0.67163E-03  4296   0.594E-02    0.274E-02
RMM:   2    -0.233261494555E+04   -0.15307E-03   -0.15382E-03  3911   0.128E-02    0.213E-02
RMM:   3    -0.233261495657E+04   -0.11014E-04   -0.12544E-04  2774   0.632E-03    0.147E-02
RMM:   4    -0.233261495619E+04    0.37326E-06   -0.16478E-05  2365   0.181E-03
 130 F= -.23536693E+04 E0= -.23536693E+04  d E =0.111412E-03  mag=     8.0000
       N       E                     dE             d eps       ncg     rms          rms(c)
DAV:   1    -0.233261463925E+04    0.31731E-03   -0.87105E-03  4320   0.664E-02    0.318E-02
RMM:   2    -0.233261483723E+04   -0.19798E-03   -0.20166E-03  4116   0.145E-02    0.192E-02
RMM:   3    -0.233261485243E+04   -0.15203E-04   -0.15571E-04  2810   0.699E-03    0.123E-02
RMM:   4    -0.233261485330E+04   -0.86827E-06   -0.21398E-05  2415   0.192E-03
 131 F= -.23536692E+04 E0= -.23536692E+04  d E =0.126592E-03  mag=     8.0000
       N       E                     dE             d eps       ncg     rms          rms(c)
DAV:   1    -0.233261459923E+04    0.25321E-03   -0.68067E-03  4296   0.595E-02    0.280E-02
RMM:   2    -0.233261475612E+04   -0.15689E-03   -0.15902E-03  3887   0.129E-02    0.187E-02
RMM:   3    -0.233261476805E+04   -0.11927E-04   -0.12558E-04  2760   0.660E-03    0.129E-02
RMM:   4    -0.233261476828E+04   -0.22931E-06   -0.17154E-05  2306   0.177E-03
[...]
RMM:   5    -0.233261613730E+04    0.53050E-05   -0.14774E-05  2669   0.213E-03
 156 F= -.23536707E+04 E0= -.23536707E+04  d E =-.413937E-03  mag=     8.0000
       N       E                     dE             d eps       ncg     rms          rms(c)
DAV:   1    -0.233261610384E+04    0.38770E-04   -0.58973E-04  4488   0.174E-02    0.145E-02
RMM:   2    -0.233261612018E+04   -0.16347E-04   -0.13408E-04  2884   0.445E-03    0.249E-02
RMM:   3    -0.233261611647E+04    0.37096E-05   -0.15707E-05  2305   0.266E-03
 157 F= -.23536707E+04 E0= -.23536707E+04  d E =0.270309E-04  mag=     8.0000
       N       E                     dE             d eps       ncg     rms          rms(c)
DAV:   1    -0.233261611918E+04    0.10019E-05   -0.34028E-05  4176   0.618E-03    0.302E-03
RMM:   2    -0.233261611977E+04   -0.59292E-06   -0.48701E-06  2319   0.173E-03
 158 F= -.23536707E+04 E0= -.23536707E+04  d E =-.132651E-05  mag=     8.0000
       N       E                     dE             d eps       ncg     rms          rms(c)
DAV:   1    -0.233261613711E+04   -0.17928E-04   -0.23532E-04  3848   0.110E-02    0.608E-03
RMM:   2    -0.233261614157E+04   -0.44614E-05   -0.47411E-05  2435   0.310E-03
 159 F= -.23536707E+04 E0= -.23536707E+04  d E =-.250508E-04  mag=     8.0000
       N       E                     dE             d eps       ncg     rms          rms(c)
DAV:   1    -0.233261571442E+04    0.42269E-03   -0.13131E-02  4456   0.745E-02    0.405E-02
RMM:   2    -0.233261596852E+04   -0.25409E-03   -0.26216E-03  4177   0.166E-02    0.231E-02
RMM:   3    -0.233261599125E+04   -0.22735E-04   -0.22689E-04  2847   0.793E-03    0.144E-02
RMM:   4    -0.233261599142E+04   -0.17231E-06   -0.27742E-05  2534   0.218E-03
 160 F= -.23536705E+04 E0= -.23536705E+04  d E =0.169550E-03  mag=     8.0000
       N       E                     dE             d eps       ncg     rms          rms(c)
DAV:   1    -0.233261593176E+04    0.59486E-04   -0.74083E-03  4152   0.511E-02    0.327E-02
RMM:   2    -0.233261608517E+04   -0.15340E-03   -0.16016E-03  3763   0.122E-02    0.155E-02
RMM:   3    -0.233261609884E+04   -0.13669E-04   -0.13210E-04  2614   0.608E-03    0.872E-03
RMM:   4    -0.233261609954E+04   -0.69894E-06   -0.17380E-05  1759   0.159E-03
 161 F= -.23536707E+04 E0= -.23536706E+04  d E =-.131728E-03  mag=     8.0000
       N       E                     dE             d eps       ncg     rms          rms(c)
DAV:   1    -0.233261612582E+04   -0.26985E-04   -0.16167E-03  4104   0.248E-02    0.136E-02
RMM:   2    -0.233261615733E+04   -0.31511E-04   -0.32221E-04  3047   0.577E-03    0.851E-03
RMM:   3    -0.233261615972E+04   -0.23833E-05   -0.27487E-05  2212   0.344E-03
 162 F= -.23536707E+04 E0= -.23536707E+04  d E =-.657471E-04  mag=     8.0000
       N       E                     dE             d eps       ncg     rms          rms(c)
DAV:   1    -0.233261615877E+04   -0.14401E-05   -0.41337E-03  4120   0.385E-02    0.229E-02
RMM:   2    -0.233261624403E+04   -0.85253E-04   -0.86989E-04  3368   0.885E-03    0.161E-02
RMM:   3    -0.233261625057E+04   -0.65492E-05   -0.72505E-05  2551   0.484E-03
 163 F= -.23536708E+04 E0= -.23536708E+04  d E =-.103364E-03  mag=     8.0000
       N       E                     dE             d eps       ncg     rms          rms(c)
DAV:   1    -0.233261497973E+04    0.12643E-02   -0.77012E-02  4440   0.165E-01    0.965E-02
RMM:   2    -0.233261650434E+04   -0.15246E-02   -0.15698E-02  5368   0.366E-02    0.528E-02
RMM:   3    -0.233261662395E+04   -0.11961E-03   -0.12120E-03  2986   0.147E-02    0.295E-02
RMM:   4    -0.233261663282E+04   -0.88702E-05   -0.17583E-04  2905   0.386E-03    0.272E-02
RMM:   5    -0.233261662855E+04    0.42714E-05   -0.18139E-05  2559   0.205E-03
 164 F= -.23536713E+04 E0= -.23536713E+04  d E =-.438673E-03  mag=     8.0000
       N       E                     dE             d eps       ncg     rms          rms(c)
DAV:   1    -0.233261567307E+04    0.95976E-03   -0.33609E-02  4352   0.107E-01    0.636E-02
RMM:   2    -0.233261632215E+04   -0.64909E-03   -0.66915E-03  4720   0.237E-02    0.341E-02
RMM:   3    -0.233261637472E+04   -0.52563E-04   -0.53857E-04  2953   0.109E-02    0.188E-02
RMM:   4    -0.233261637723E+04   -0.25105E-05   -0.69231E-05  2650   0.265E-03
 165 F= -.23536710E+04 E0= -.23536710E+04  d E =0.289178E-03  mag=     8.0000
       N       E                     dE             d eps       ncg     rms          rms(c)
DAV:   1    -0.233261636789E+04    0.68272E-05   -0.42720E-05  4432   0.713E-03    0.121E-02
RMM:   2    -0.233261637142E+04   -0.35328E-05   -0.13392E-05  2418   0.228E-03
 166 F= -.23536710E+04 E0= -.23536710E+04  d E =0.436577E-05  mag=     8.0000
       N       E                     dE             d eps       ncg     rms          rms(c)
DAV:   1    -0.233261634204E+04    0.25847E-04   -0.47711E-03  4176   0.438E-02    0.257E-02
RMM:   2    -0.233261644498E+04   -0.10293E-03   -0.10729E-03  3572   0.106E-02    0.123E-02
RMM:   3    -0.233261645413E+04   -0.91564E-05   -0.92470E-05  2516   0.554E-03
 167 F= -.23536711E+04 E0= -.23536711E+04  d E =-.970656E-04  mag=     8.0000
       N       E                     dE             d eps       ncg     rms          rms(c)
DAV:   1    -0.233261646469E+04   -0.19711E-04   -0.22931E-04  4312   0.126E-02    0.592E-03
RMM:   2    -0.233261646992E+04   -0.52313E-05   -0.53163E-05  2482   0.347E-03
 168 F= -.23536711E+04 E0= -.23536711E+04  d E =-.201072E-04  mag=     8.0000
       N       E                     dE             d eps       ncg     rms          rms(c)
DAV:   1    -0.233261648405E+04   -0.19359E-04   -0.57270E-04  3968   0.160E-02    0.874E-03
RMM:   2    -0.233261649775E+04   -0.13701E-04   -0.13782E-04  2731   0.449E-03    0.766E-03
RMM:   3    -0.233261649872E+04   -0.97438E-06   -0.12864E-05  2148   0.267E-03
 169 F= -.23536711E+04 E0= -.23536711E+04  d E =-.355571E-04  mag=     8.0000
       N       E                     dE             d eps       ncg     rms          rms(c)
DAV:   1    -0.233261651631E+04   -0.18567E-04   -0.45594E-04  3760   0.134E-02    0.762E-03
RMM:   2    -0.233261652608E+04   -0.97674E-05   -0.99235E-05  2581   0.350E-03
 170 F= -.23536711E+04 E0= -.23536711E+04  d E =-.323878E-04  mag=     8.0000
       N       E                     dE             d eps       ncg     rms          rms(c)
DAV:   1    -0.233261653784E+04   -0.21526E-04   -0.18150E-03  4136   0.271E-02    0.151E-02
RMM:   2    -0.233261657703E+04   -0.39186E-04   -0.39932E-04  3131   0.692E-03    0.106E-02
RMM:   3    -0.233261658043E+04   -0.34056E-05   -0.36107E-05  2316   0.405E-03
 171 F= -.23536712E+04 E0= -.23536712E+04  d E =-.659709E-04  mag=     8.0000
       N       E                     dE             d eps       ncg     rms          rms(c)
DAV:   1    -0.233261659809E+04   -0.21064E-04   -0.95910E-04  4192   0.215E-02    0.117E-02
RMM:   2    -0.233261661846E+04   -0.20371E-04   -0.20685E-04  2923   0.534E-03    0.824E-03
RMM:   3    -0.233261662019E+04   -0.17330E-05   -0.19578E-05  2284   0.325E-03
 172 F= -.23536713E+04 E0= -.23536713E+04  d E =-.465590E-04  mag=     8.0000
       N       E                     dE             d eps       ncg     rms          rms(c)
DAV:   1    -0.233261663926E+04   -0.20800E-04   -0.44856E-04  3976   0.140E-02    0.870E-03
RMM:   2    -0.233261664918E+04   -0.99238E-05   -0.98771E-05  2630   0.353E-03
 173 F= -.23536713E+04 E0= -.23536713E+04  d E =-.330779E-04  mag=     8.0000
       N       E                     dE             d eps       ncg     rms          rms(c)
DAV:   1    -0.233261662708E+04    0.12183E-04   -0.19137E-04  3952   0.107E-02    0.780E-03
RMM:   2    -0.233261663011E+04   -0.30308E-05   -0.30342E-05  2394   0.287E-03
 174 F= -.23536713E+04 E0= -.23536713E+04  d E =0.204304E-04  mag=     8.0000
       N       E                     dE             d eps       ncg     rms          rms(c)
DAV:   1    -0.233261661824E+04    0.88401E-05   -0.44534E-03  4160   0.425E-02    0.239E-02
RMM:   2    -0.233261670714E+04   -0.88906E-04   -0.91510E-04  3509   0.103E-02    0.139E-02
RMM:   3    -0.233261671525E+04   -0.81109E-05   -0.82254E-05  2506   0.555E-03
 175 F= -.23536714E+04 E0= -.23536714E+04  d E =-.100996E-03  mag=     8.0000
       N       E                     dE             d eps       ncg     rms          rms(c)
DAV:   1    -0.233261673817E+04   -0.31022E-04   -0.70798E-04  4224   0.195E-02    0.107E-02
RMM:   2    -0.233261675173E+04   -0.13568E-04   -0.13765E-04  2856   0.492E-03    0.946E-03
RMM:   3    -0.233261675276E+04   -0.10292E-05   -0.14559E-05  2307   0.308E-03
 176 F= -.23536714E+04 E0= -.23536714E+04  d E =-.420036E-04  mag=     8.0000
       N       E                     dE             d eps       ncg     rms          rms(c)
DAV:   1    -0.233261640435E+04    0.34738E-03   -0.27500E-02  4376   0.104E-01    0.577E-02
RMM:   2    -0.233261693580E+04   -0.53145E-03   -0.54767E-03  4765   0.225E-02    0.314E-02
RMM:   3    -0.233261697735E+04   -0.41559E-04   -0.41984E-04  2910   0.958E-03    0.184E-02
RMM:   4    -0.233261698084E+04   -0.34813E-05   -0.60456E-05  2718   0.261E-03
 177 F= -.23536717E+04 E0= -.23536717E+04  d E =-.262460E-03  mag=     8.0000
       N       E                     dE             d eps       ncg     rms          rms(c)
DAV:   1    -0.233261651175E+04    0.46560E-03   -0.15180E-02  4392   0.780E-02    0.456E-02
RMM:   2    -0.233261678467E+04   -0.27292E-03   -0.28518E-03  4467   0.174E-02    0.246E-02
RMM:   3    -0.233261680970E+04   -0.25028E-04   -0.24113E-04  2856   0.783E-03    0.173E-02
RMM:   4    -0.233261680887E+04    0.82464E-06   -0.29336E-05  2459   0.231E-03
 178 F= -.23536715E+04 E0= -.23536715E+04  d E =0.197230E-03  mag=     8.0000
       N       E                     dE             d eps       ncg     rms          rms(c)
DAV:   1    -0.233261682083E+04   -0.11137E-04   -0.20903E-03  4144   0.296E-02    0.180E-02
RMM:   2    -0.233261686223E+04   -0.41395E-04   -0.43659E-04  3161   0.708E-03    0.808E-03
RMM:   3    -0.233261686613E+04   -0.39034E-05   -0.38654E-05  2284   0.416E-03
 179 F= -.23536716E+04 E0= -.23536716E+04  d E =-.702007E-04  mag=     8.0000
       N       E                     dE             d eps       ncg     rms          rms(c)
DAV:   1    -0.233261685565E+04    0.65753E-05   -0.50708E-03  4160   0.448E-02    0.247E-02
RMM:   2    -0.233261695643E+04   -0.10077E-03   -0.10367E-03  3511   0.104E-02    0.140E-02
RMM:   3    -0.233261696427E+04   -0.78480E-05   -0.81796E-05  2559   0.537E-03
 180 F= -.23536717E+04 E0= -.23536717E+04  d E =-.109478E-03  mag=     8.0000
       N       E                     dE             d eps       ncg     rms          rms(c)
DAV:   1    -0.233261692415E+04    0.32275E-04   -0.65867E-03  4256   0.522E-02    0.290E-02
RMM:   2    -0.233261706046E+04   -0.13631E-03   -0.13868E-03  3694   0.119E-02    0.211E-02
RMM:   3    -0.233261707105E+04   -0.10593E-04   -0.11704E-04  2765   0.601E-03    0.162E-02
RMM:   4    -0.233261707034E+04    0.71463E-06   -0.17436E-05  2087   0.171E-03
 181 F= -.23536718E+04 E0= -.23536718E+04  d E =-.123099E-03  mag=     8.0000
       N       E                     dE             d eps       ncg     rms          rms(c)
DAV:   1    -0.233261689459E+04    0.17647E-03   -0.16136E-02  4248   0.793E-02    0.436E-02
RMM:   2    -0.233261721425E+04   -0.31966E-03   -0.32909E-03  4269   0.170E-02    0.241E-02
RMM:   3    -0.233261723896E+04   -0.24715E-04   -0.25405E-04  2897   0.836E-03    0.142E-02
RMM:   4    -0.233261724043E+04   -0.14691E-05   -0.32587E-05  2454   0.205E-03
 182 F= -.23536720E+04 E0= -.23536720E+04  d E =-.196475E-03  mag=     8.0000
       N       E                     dE             d eps       ncg     rms          rms(c)
DAV:   1    -0.233261677751E+04    0.46146E-03   -0.14516E-02  4256   0.751E-02    0.444E-02
RMM:   2    -0.233261705783E+04   -0.28032E-03   -0.29098E-03  4303   0.166E-02    0.247E-02
RMM:   3    -0.233261708300E+04   -0.25176E-04   -0.24406E-04  2794   0.741E-03    0.180E-02
RMM:   4    -0.233261708203E+04    0.97175E-06   -0.30233E-05  2189   0.212E-03
 183 F= -.23536718E+04 E0= -.23536718E+04  d E =0.181983E-03  mag=     8.0000
       N       E                     dE             d eps       ncg     rms          rms(c)
DAV:   1    -0.233261699919E+04    0.83815E-04   -0.14081E-03  4144   0.236E-02    0.131E-02
RMM:   2    -0.233261702789E+04   -0.28703E-04   -0.29255E-04  2992   0.540E-03    0.880E-03
RMM:   3    -0.233261703008E+04   -0.21893E-05   -0.25552E-05  2153   0.325E-03
 184 F= -.23536717E+04 E0= -.23536717E+04  d E =0.590555E-04  mag=     8.0000
       N       E                     dE             d eps       ncg     rms          rms(c)
DAV:   1    -0.233261705350E+04   -0.25607E-04   -0.97280E-04  4160   0.206E-02    0.123E-02
RMM:   2    -0.233261707127E+04   -0.17766E-04   -0.18692E-04  2821   0.447E-03    0.833E-03
RMM:   3    -0.233261707290E+04   -0.16365E-05   -0.17501E-05  2126   0.270E-03
 185 F= -.23536718E+04 E0= -.23536718E+04  d E =-.481617E-04  mag=     8.0000
       N       E                     dE             d eps       ncg     rms          rms(c)
DAV:   1    -0.233261708208E+04   -0.10810E-04   -0.54434E-03  4336   0.506E-02    0.246E-02
RMM:   2    -0.233261716975E+04   -0.87676E-04   -0.90970E-04  3515   0.104E-02    0.139E-02
RMM:   3    -0.233261717676E+04   -0.70057E-05   -0.75975E-05  2582   0.543E-03
 186 F= -.23536719E+04 E0= -.23536719E+04  d E =-.111204E-03  mag=     8.0000
       N       E                     dE             d eps       ncg     rms          rms(c)
DAV:   1    -0.233261719540E+04   -0.25650E-04   -0.30604E-03  4176   0.381E-02    0.194E-02
RMM:   2    -0.233261725144E+04   -0.56037E-04   -0.57663E-04  3273   0.853E-03    0.123E-02
RMM:   3    -0.233261725570E+04   -0.42620E-05   -0.47350E-05  2545   0.458E-03
 187 F= -.23536720E+04 E0= -.23536720E+04  d E =-.873662E-04  mag=     8.0000
       N       E                     dE             d eps       ncg     rms          rms(c)
DAV:   1    -0.233261726055E+04   -0.91155E-05   -0.53252E-03  4320   0.509E-02    0.258E-02
RMM:   2    -0.233261735347E+04   -0.92913E-04   -0.94900E-04  3536   0.108E-02    0.193E-02
RMM:   3    -0.233261736067E+04   -0.72065E-05   -0.81806E-05  2751   0.567E-03
 188 F= -.23536721E+04 E0= -.23536721E+04  d E =-.112784E-03  mag=     8.0000
       N       E                     dE             d eps       ncg     rms          rms(c)
DAV:   1    -0.233261737583E+04   -0.22360E-04   -0.21585E-04  4592   0.109E-02    0.102E-02
RMM:   2    -0.233261738040E+04   -0.45768E-05   -0.46637E-05  2525   0.301E-03
 189 F= -.23536721E+04 E0= -.23536721E+04  d E =-.213697E-04  mag=     8.0000
       N       E                     dE             d eps       ncg     rms          rms(c)
DAV:   1    -0.233261726426E+04    0.11156E-03   -0.26001E-03  4200   0.354E-02    0.186E-02
RMM:   2    -0.233261730572E+04   -0.41455E-04   -0.43225E-04  3192   0.781E-03    0.131E-02
RMM:   3    -0.233261730985E+04   -0.41327E-05   -0.42994E-05  2359   0.447E-03
 190 F= -.23536720E+04 E0= -.23536720E+04  d E =0.779629E-04  mag=     8.0000
       N       E                     dE             d eps       ncg     rms          rms(c)
DAV:   1    -0.233261710638E+04    0.19934E-03   -0.58743E-03  4488   0.627E-02    0.258E-02
RMM:   2    -0.233261719472E+04   -0.88341E-04   -0.91697E-04  3861   0.125E-02    0.147E-02
RMM:   3    -0.233261720223E+04   -0.75125E-05   -0.81487E-05  2764   0.653E-03
 191 F= -.23536719E+04 E0= -.23536719E+04  d E =0.106775E-03  mag=     8.0000
       N       E                     dE             d eps       ncg     rms          rms(c)
DAV:   1    -0.233261638644E+04    0.80828E-03   -0.59207E-02  4488   0.152E-01    0.837E-02
RMM:   2    -0.233261745147E+04   -0.10650E-02   -0.11059E-02  5268   0.316E-02    0.430E-02
RMM:   3    -0.233261753874E+04   -0.87263E-04   -0.85751E-04  3012   0.144E-02    0.290E-02
RMM:   4    -0.233261754385E+04   -0.51141E-05   -0.11530E-04  2860   0.355E-03    0.232E-02
RMM:   5    -0.233261753964E+04    0.42134E-05   -0.99630E-06  2424   0.176E-03
 192 F= -.23536723E+04 E0= -.23536723E+04  d E =-.377005E-03  mag=     8.0000
       N       E                     dE             d eps       ncg     rms          rms(c)
DAV:   1    -0.233261753333E+04    0.10525E-04   -0.24769E-05  3920   0.327E-03    0.444E-03
RMM:   2    -0.233261753414E+04   -0.81785E-06   -0.45122E-06  1709   0.144E-03
 193 F= -.23536723E+04 E0= -.23536723E+04  d E =0.611812E-05  mag=     8.0000
       N       E                     dE             d eps       ncg     rms          rms(c)
DAV:   1    -0.233261752417E+04    0.91577E-05   -0.16828E-03  4208   0.293E-02    0.160E-02
RMM:   2    -0.233261756271E+04   -0.38542E-04   -0.40109E-04  3117   0.690E-03    0.804E-03
RMM:   3    -0.233261756602E+04   -0.33093E-05   -0.34252E-05  2322   0.391E-03
 194 F= -.23536724E+04 E0= -.23536724E+04  d E =-.439589E-04  mag=     8.0000
       N       E                     dE             d eps       ncg     rms          rms(c)
DAV:   1    -0.233261745767E+04    0.10504E-03   -0.37258E-03  4280   0.421E-02    0.146E-02
RMM:   2    -0.233261747069E+04   -0.13020E-04   -0.14103E-04  3090   0.661E-03    0.138E-02
RMM:   3    -0.233261747049E+04    0.19744E-06   -0.14047E-05  2544   0.375E-03
 195 F= -.23536723E+04 E0= -.23536723E+04  d E =0.885859E-04  mag=     8.0000
       N       E                     dE             d eps       ncg     rms          rms(c)
DAV:   1    -0.233261744511E+04    0.25580E-04   -0.39041E-04  4456   0.157E-02    0.818E-03
RMM:   2    -0.233261745133E+04   -0.62170E-05   -0.66641E-05  2664   0.357E-03
 196 F= -.23536723E+04 E0= -.23536723E+04  d E =0.952035E-05  mag=     8.0000
       N       E                     dE             d eps       ncg     rms          rms(c)
DAV:   1    -0.233261726905E+04    0.17606E-03   -0.64438E-03  4280   0.529E-02    0.237E-02
RMM:   2    -0.233261730450E+04   -0.35451E-04   -0.38651E-04  3359   0.977E-03    0.182E-02
RMM:   3    -0.233261730680E+04   -0.22952E-05   -0.41923E-05  2706   0.528E-03
 197 F= -.23536721E+04 E0= -.23536721E+04  d E =0.135830E-03  mag=     8.0000
       N       E                     dE             d eps       ncg     rms          rms(c)
DAV:   1    -0.233261723399E+04    0.70511E-04   -0.14023E-03  4152   0.264E-02    0.147E-02
RMM:   2    -0.233261724023E+04   -0.62418E-05   -0.72279E-05  2917   0.505E-03
 198 F= -.23536721E+04 E0= -.23536721E+04  d E =0.510961E-04  mag=     8.0000
       N       E                     dE             d eps       ncg     rms          rms(c)
DAV:   1    -0.233261709719E+04    0.13680E-03   -0.41731E-03  4488   0.524E-02    0.284E-02
RMM:   2    -0.233261718473E+04   -0.87539E-04   -0.90492E-04  3758   0.126E-02    0.220E-02
RMM:   3    -0.233261719278E+04   -0.80429E-05   -0.92246E-05  2825   0.704E-03
 199 F= -.23536720E+04 E0= -.23536720E+04  d E =0.575787E-04  mag=     8.0000
       N       E                     dE             d eps       ncg     rms          rms(c)
DAV:   1    -0.233261711735E+04    0.67378E-04   -0.18361E-03  4204   0.325E-02    0.175E-02
RMM:   2    -0.233261714019E+04   -0.22834E-04   -0.24875E-04  3119   0.717E-03    0.112E-02
RMM:   3    -0.233261714212E+04   -0.19328E-05   -0.22383E-05  2456   0.402E-03
 200 F= -.23536720E+04 E0= -.23536720E+04  d E =0.267115E-04  mag=     8.0000
       N       E                     dE             d eps       ncg     rms          rms(c)
DAV:   1    -0.233261719987E+04   -0.59677E-04   -0.20680E-02  4488   0.966E-02    0.382E-02
RMM:   2    -0.233261736686E+04   -0.16700E-03   -0.17509E-03  4646   0.168E-02    0.259E-02
RMM:   3    -0.233261737741E+04   -0.10544E-04   -0.15032E-04  2909   0.776E-03    0.194E-02
RMM:   4    -0.233261737577E+04    0.16397E-05   -0.21772E-05  2763   0.235E-03
 201 F= -.23536722E+04 E0= -.23536722E+04  d E =-.234118E-03  mag=     8.0000
