       N       E                     dE             d eps       ncg     rms          rms(c)
DAV:   1     0.129722932403E+05    0.12972E+05   -0.84426E+05  4560   0.143E+03
DAV:   2    -0.111222570230E+04   -0.14085E+05   -0.13490E+05  5080   0.327E+02
DAV:   3    -0.249229790888E+04   -0.13801E+04   -0.13666E+04  5480   0.111E+02
DAV:   4    -0.252900632219E+04   -0.36708E+02   -0.36535E+02  6200   0.247E+01
DAV:   5    -0.252980909487E+04   -0.80277E+00   -0.80123E+00  5760   0.297E+00    0.170E+02
RMM:   6    -0.150131250279E+04    0.10285E+04   -0.19331E+03  4509   0.380E+01    0.737E+01
RMM:   7    -0.167217387973E+04   -0.17086E+03   -0.30508E+02  5124   0.147E+01    0.606E+01
RMM:   8    -0.171281273466E+04   -0.40639E+02   -0.10145E+02  5465   0.892E+00    0.484E+01
RMM:   9    -0.175934022962E+04   -0.46527E+02   -0.60841E+01  4939   0.738E+00    0.337E+01
RMM:  10    -0.190484047945E+04   -0.14550E+03   -0.69368E+01  5074   0.797E+00    0.274E+01
RMM:  11    -0.198485290972E+04   -0.80012E+02   -0.33040E+01  4866   0.544E+00    0.235E+01
RMM:  12    -0.206580567562E+04   -0.80953E+02   -0.33994E+01  4990   0.470E+00    0.147E+01
RMM:  13    -0.216010556055E+04   -0.94300E+02   -0.50960E+01  4680   0.537E+00    0.117E+01
RMM:  14    -0.224728769908E+04   -0.87182E+02   -0.65490E+01  4796   0.595E+00    0.104E+01
RMM:  15    -0.229787240164E+04   -0.50585E+02   -0.46356E+01  5030   0.500E+00    0.758E+00
RMM:  16    -0.231029604317E+04   -0.12424E+02   -0.13036E+01  5060   0.288E+00    0.381E+00
RMM:  17    -0.231744961493E+04   -0.71536E+01   -0.63834E+00  4617   0.157E+00    0.215E+00
RMM:  18    -0.232020384211E+04   -0.27542E+01   -0.20720E+00  4886   0.115E+00    0.131E+00
RMM:  19    -0.232142392750E+04   -0.12201E+01   -0.10121E+00  4742   0.527E-01    0.664E-01
RMM:  20    -0.232170915666E+04   -0.28523E+00   -0.35335E-01  4754   0.411E-01    0.419E-01
RMM:  21    -0.232176926633E+04   -0.60110E-01   -0.84021E-02  4805   0.161E-01    0.275E-01
RMM:  22    -0.232179908240E+04   -0.29816E-01   -0.21563E-02  4716   0.122E-01    0.141E-01
RMM:  23    -0.232181458827E+04   -0.15506E-01   -0.65262E-03  4658   0.602E-02    0.103E-01
RMM:  24    -0.232182752267E+04   -0.12934E-01   -0.39496E-03  4509   0.515E-02    0.610E-02
RMM:  25    -0.232183546060E+04   -0.79379E-02   -0.25726E-03  4567   0.371E-02    0.410E-02
RMM:  26    -0.232183955286E+04   -0.40923E-02   -0.12883E-03  4492   0.297E-02    0.271E-02
RMM:  27    -0.232184117291E+04   -0.16200E-02   -0.61923E-04  4199   0.187E-02    0.122E-02
RMM:  28    -0.232184165050E+04   -0.47759E-03   -0.17571E-04  3906   0.131E-02    0.834E-03
RMM:  29    -0.232184182349E+04   -0.17300E-03   -0.52955E-05  3538   0.641E-03    0.434E-03
RMM:  30    -0.232184192237E+04   -0.98872E-04   -0.21263E-05  3121   0.504E-03    0.269E-03
RMM:  31    -0.232184196318E+04   -0.40810E-04   -0.10564E-05  2948   0.332E-03    0.173E-03
RMM:  32    -0.232184197911E+04   -0.15929E-04   -0.52278E-06  2812   0.272E-03    0.106E-03
RMM:  33    -0.232184198316E+04   -0.40504E-05   -0.26539E-06  2473   0.194E-03
   1 F= -.23432362E+04 E0= -.23432362E+04  d E =-.326871E-06  mag=     4.0000
       N       E                     dE             d eps       ncg     rms          rms(c)
DAV:   1    -0.232183769635E+04    0.42828E-02   -0.19503E+00  4480   0.621E-01    0.291E-01
RMM:   2    -0.232183835014E+04   -0.65378E-03   -0.10570E-02  4745   0.535E-02    0.264E-01
RMM:   3    -0.232183805071E+04    0.29942E-03   -0.26702E-03  4675   0.266E-02    0.251E-01
RMM:   4    -0.232183768733E+04    0.36339E-03   -0.97736E-04  4517   0.140E-02    0.148E-01
RMM:   5    -0.232183750517E+04    0.18215E-03   -0.39784E-04  3541   0.109E-02    0.711E-02
RMM:   6    -0.232183746446E+04    0.40713E-04   -0.95856E-05  3193   0.574E-03    0.362E-02
RMM:   7    -0.232183745257E+04    0.11894E-04   -0.32481E-05  2733   0.366E-03    0.206E-02
RMM:   8    -0.232183744973E+04    0.28430E-05   -0.10879E-05  2642   0.245E-03
   2 F= -.23432330E+04 E0= -.23432330E+04  d E =-.276041E-06  mag=     4.0000
       N       E                     dE             d eps       ncg     rms          rms(c)
DAV:   1    -0.232184089730E+04   -0.34447E-02   -0.77897E+00  4560   0.123E+00    0.576E-01
RMM:   2    -0.232184326013E+04   -0.23628E-02   -0.38367E-02  4966   0.103E-01    0.522E-01
RMM:   3    -0.232184226908E+04    0.99105E-03   -0.10206E-02  5477   0.511E-02    0.505E-01
RMM:   4    -0.232184081293E+04    0.14561E-02   -0.36926E-03  5500   0.268E-02    0.299E-01
RMM:   5    -0.232184004366E+04    0.76928E-03   -0.15935E-03  4669   0.206E-02    0.136E-01
RMM:   6    -0.232183990974E+04    0.13392E-03   -0.35723E-04  3940   0.980E-03    0.760E-02
RMM:   7    -0.232183985100E+04    0.58738E-04   -0.12982E-04  2995   0.630E-03    0.391E-02
RMM:   8    -0.232183984052E+04    0.10485E-04   -0.41443E-05  2950   0.446E-03    0.181E-02
RMM:   9    -0.232183983928E+04    0.12341E-05   -0.12305E-05  2834   0.289E-03
   3 F= -.23432328E+04 E0= -.23432328E+04  d E =-.368759E-06  mag=     4.0000
       N       E                     dE             d eps       ncg     rms          rms(c)
DAV:   1    -0.232182660420E+04    0.13236E-01   -0.38416E+00  4480   0.984E-01    0.383E-01
RMM:   2    -0.232182788359E+04   -0.12794E-02   -0.17117E-02  4630   0.774E-02    0.373E-01
RMM:   3    -0.232182746810E+04    0.41549E-03   -0.42353E-03  4700   0.338E-02    0.336E-01
RMM:   4    -0.232182705925E+04    0.40885E-03   -0.21756E-03  5125   0.214E-02    0.259E-01
RMM:   5    -0.232182632508E+04    0.73418E-03   -0.91858E-04  4524   0.156E-02    0.688E-02
RMM:   6    -0.232182630951E+04    0.15561E-04   -0.17203E-04  3207   0.660E-03    0.440E-02
RMM:   7    -0.232182628857E+04    0.20939E-04   -0.53559E-05  2842   0.482E-03    0.235E-02
RMM:   8    -0.232182628160E+04    0.69753E-05   -0.16331E-05  2713   0.254E-03
   4 F= -.23432187E+04 E0= -.23432187E+04  d E =-.224239E-06  mag=     4.0000
       N       E                     dE             d eps       ncg     rms          rms(c)
DAV:   1    -0.232182487318E+04    0.14154E-02   -0.79694E+00  4480   0.155E+00    0.664E-01
RMM:   2    -0.232182875968E+04   -0.38865E-02   -0.55209E-02  5156   0.133E-01    0.691E-01
RMM:   3    -0.232182459294E+04    0.41667E-02   -0.12832E-02  5662   0.624E-02    0.460E-01
RMM:   4    -0.232182376884E+04    0.82410E-03   -0.65165E-03  5427   0.363E-02    0.442E-01
RMM:   5    -0.232182232982E+04    0.14390E-02   -0.30253E-03  5344   0.244E-02    0.243E-01
RMM:   6    -0.232182175065E+04    0.57917E-03   -0.58203E-04  4126   0.119E-02    0.470E-02
RMM:   7    -0.232182173086E+04    0.19793E-04   -0.11498E-04  3408   0.566E-03    0.338E-02
RMM:   8    -0.232182171971E+04    0.11152E-04   -0.46075E-05  2862   0.434E-03    0.222E-02
RMM:   9    -0.232182171339E+04    0.63171E-05   -0.17978E-05  2915   0.298E-03
   5 F= -.23432180E+04 E0= -.23432180E+04  d E =-.447666E-06  mag=     4.0000
       N       E                     dE             d eps       ncg     rms          rms(c)
DAV:   1    -0.232183570220E+04   -0.13982E-01   -0.42713E+00  4480   0.113E+00    0.541E-01
RMM:   2    -0.232183758292E+04   -0.18807E-02   -0.33981E-02  4823   0.102E-01    0.519E-01
RMM:   3    -0.232183636623E+04    0.12167E-02   -0.79554E-03  5058   0.514E-02    0.461E-01
RMM:   4    -0.232183464131E+04    0.17249E-02   -0.39533E-03  5348   0.288E-02    0.318E-01
RMM:   5    -0.232183420846E+04    0.43285E-03   -0.23748E-03  5181   0.204E-02    0.224E-01
RMM:   6    -0.232183363360E+04    0.57486E-03   -0.58586E-04  3953   0.131E-02    0.334E-02
RMM:   7    -0.232183361605E+04    0.17556E-04   -0.73144E-05  3108   0.461E-03    0.190E-02
RMM:   8    -0.232183361734E+04   -0.12976E-05   -0.25703E-05  2829   0.358E-03
   6 F= -.23432303E+04 E0= -.23432303E+04  d E =-.339312E-06  mag=     4.0000
       N       E                     dE             d eps       ncg     rms          rms(c)
DAV:   1    -0.232184000848E+04   -0.63924E-02   -0.79520E+00  4480   0.145E+00    0.729E-01
RMM:   2    -0.232184235693E+04   -0.23484E-02   -0.55592E-02  4937   0.127E-01    0.511E-01
RMM:   3    -0.232184428365E+04   -0.19267E-02   -0.12189E-02  5364   0.606E-02    0.699E-01
RMM:   4    -0.232184001741E+04    0.42662E-02   -0.60341E-03  5654   0.342E-02    0.297E-01
RMM:   5    -0.232183937066E+04    0.64675E-03   -0.18714E-03  4985   0.195E-02    0.130E-01
RMM:   6    -0.232183928449E+04    0.86173E-04   -0.60144E-04  3923   0.132E-02    0.872E-02
RMM:   7    -0.232183922334E+04    0.61148E-04   -0.13554E-04  3143   0.723E-03    0.336E-02
RMM:   8    -0.232183924766E+04   -0.24322E-04   -0.66945E-05  3179   0.503E-03    0.361E-02
RMM:   9    -0.232183923525E+04    0.12408E-04   -0.25417E-05  2890   0.405E-03    0.118E-02
RMM:  10    -0.232183923848E+04   -0.32270E-05   -0.69213E-06  2765   0.219E-03
   7 F= -.23432313E+04 E0= -.23432313E+04  d E =-.316419E-06  mag=     4.0000
       N       E                     dE             d eps       ncg     rms          rms(c)
DAV:   1    -0.232184105155E+04   -0.18163E-02   -0.38081E+00  4480   0.923E-01    0.433E-01
RMM:   2    -0.232184254767E+04   -0.14961E-02   -0.23699E-02  4585   0.847E-02    0.320E-01
RMM:   3    -0.232184403829E+04   -0.14906E-02   -0.55294E-03  5006   0.376E-02    0.509E-01
RMM:   4    -0.232184156294E+04    0.24754E-02   -0.22796E-03  5242   0.215E-02    0.108E-01
RMM:   5    -0.232184172288E+04   -0.15994E-03   -0.62210E-04  3844   0.132E-02    0.101E-01
RMM:   6    -0.232184160143E+04    0.12145E-03   -0.20805E-04  3351   0.757E-03    0.335E-02
RMM:   7    -0.232184160476E+04   -0.33254E-05   -0.36578E-05  2943   0.389E-03
   8 F= -.23432345E+04 E0= -.23432345E+04  d E =-.366728E-06  mag=     4.0000
       N       E                     dE             d eps       ncg     rms          rms(c)
DAV:   1    -0.232183943970E+04    0.21617E-02   -0.74992E+00  4480   0.972E-01    0.590E-01
RMM:   2    -0.232184093844E+04   -0.14987E-02   -0.40656E-02  4574   0.891E-02    0.402E-01
RMM:   3    -0.232184096104E+04   -0.22597E-04   -0.81777E-03  5217   0.488E-02    0.455E-01
RMM:   4    -0.232183963532E+04    0.13257E-02   -0.40438E-03  5448   0.267E-02    0.294E-01
RMM:   5    -0.232183923285E+04    0.40246E-03   -0.13628E-03  5008   0.174E-02    0.172E-01
RMM:   6    -0.232183891906E+04    0.31379E-03   -0.52235E-04  4003   0.123E-02    0.631E-02
RMM:   7    -0.232183889740E+04    0.21659E-04   -0.75817E-05  3025   0.545E-03    0.354E-02
RMM:   8    -0.232183890226E+04   -0.48560E-05   -0.40773E-05  2910   0.411E-03
   9 F= -.23432346E+04 E0= -.23432346E+04  d E =-.306100E-06  mag=     4.0000
       N       E                     dE             d eps       ncg     rms          rms(c)
DAV:   1    -0.232183174506E+04    0.71523E-02   -0.37295E+00  4480   0.685E-01    0.366E-01
RMM:   2    -0.232183304783E+04   -0.13028E-02   -0.16295E-02  4265   0.628E-02    0.254E-01
RMM:   3    -0.232183361133E+04   -0.56350E-03   -0.34867E-03  5312   0.296E-02    0.311E-01
RMM:   4    -0.232183273014E+04    0.88119E-03   -0.15201E-03  4867   0.183E-02    0.201E-01
RMM:   5    -0.232183248048E+04    0.24966E-03   -0.69487E-04  3612   0.118E-02    0.971E-02
RMM:   6    -0.232183240011E+04    0.80368E-04   -0.13468E-04  3094   0.768E-03    0.234E-02
RMM:   7    -0.232183240840E+04   -0.82819E-05   -0.29907E-05  2848   0.353E-03
  10 F= -.23432288E+04 E0= -.23432288E+04  d E =-.424718E-06  mag=     4.0000
       N       E                     dE             d eps       ncg     rms          rms(c)
DAV:   1    -0.232183651913E+04   -0.41190E-02   -0.78538E+00  4480   0.103E+00    0.608E-01
RMM:   2    -0.232184084055E+04   -0.43214E-02   -0.40937E-02  4948   0.951E-02    0.603E-01
RMM:   3    -0.232183905270E+04    0.17879E-02   -0.91499E-03  5530   0.473E-02    0.541E-01
RMM:   4    -0.232183725766E+04    0.17950E-02   -0.40111E-03  5490   0.276E-02    0.304E-01
RMM:   5    -0.232183687510E+04    0.38256E-03   -0.23796E-03  5255   0.216E-02    0.207E-01
RMM:   6    -0.232183630620E+04    0.56890E-03   -0.66682E-04  3776   0.126E-02    0.519E-02
RMM:   7    -0.232183630700E+04   -0.80252E-06   -0.14138E-04  3122   0.689E-03    0.473E-02
RMM:   8    -0.232183627684E+04    0.30167E-04   -0.44166E-05  2890   0.461E-03    0.182E-02
RMM:   9    -0.232183627298E+04    0.38553E-05   -0.15427E-05  2886   0.269E-03
  11 F= -.23432285E+04 E0= -.23432285E+04  d E =-.259814E-06  mag=     4.0000
       N       E                     dE             d eps       ncg     rms          rms(c)
DAV:   1    -0.232183068068E+04    0.55962E-02   -0.41882E+00  4560   0.881E-01    0.532E-01
RMM:   2    -0.232183185581E+04   -0.11751E-02   -0.33077E-02  4991   0.871E-02    0.441E-01
RMM:   3    -0.232183061649E+04    0.12393E-02   -0.59678E-03  5127   0.423E-02    0.436E-01
RMM:   4    -0.232182947461E+04    0.11419E-02   -0.30504E-03  5359   0.228E-02    0.273E-01
RMM:   5    -0.232182921152E+04    0.26310E-03   -0.18695E-03  4995   0.184E-02    0.172E-01
RMM:   6    -0.232182877528E+04    0.43623E-03   -0.48093E-04  3397   0.110E-02    0.381E-02
RMM:   7    -0.232182876256E+04    0.12722E-04   -0.71127E-05  3064   0.475E-03    0.307E-02
RMM:   8    -0.232182874958E+04    0.12981E-04   -0.26257E-05  2648   0.342E-03    0.151E-02
RMM:   9    -0.232182874590E+04    0.36847E-05   -0.17511E-05  2827   0.237E-03
  12 F= -.23432207E+04 E0= -.23432207E+04  d E =-.255298E-06  mag=     4.0000
       N       E                     dE             d eps       ncg     rms          rms(c)
DAV:   1    -0.232182733010E+04    0.14195E-02   -0.76997E+00  4480   0.124E+00    0.724E-01
RMM:   2    -0.232182870307E+04   -0.13730E-02   -0.62468E-02  5050   0.114E-01    0.499E-01
RMM:   3    -0.232182507871E+04    0.36244E-02   -0.90459E-03  5259   0.475E-02    0.262E-01
RMM:   4    -0.232182517106E+04   -0.92349E-04   -0.40742E-03  5386   0.266E-02    0.267E-01
RMM:   5    -0.232182436372E+04    0.80734E-03   -0.12507E-03  4472   0.164E-02    0.118E-01
RMM:   6    -0.232182434182E+04    0.21897E-04   -0.30145E-04  3323   0.841E-03    0.962E-02
RMM:   7    -0.232182425176E+04    0.90064E-04   -0.10353E-04  2945   0.602E-03    0.325E-02
RMM:   8    -0.232182425985E+04   -0.80903E-05   -0.52107E-05  3020   0.396E-03
  13 F= -.23432210E+04 E0= -.23432210E+04  d E =-.404047E-06  mag=     4.0000
       N       E                     dE             d eps       ncg     rms          rms(c)
DAV:   1    -0.232184269048E+04   -0.18439E-01   -0.23400E+00  4480   0.586E-01    0.439E-01
RMM:   2    -0.232184289502E+04   -0.20454E-03   -0.19962E-02  4666   0.633E-02    0.306E-01
RMM:   3    -0.232184160252E+04    0.12925E-02   -0.30277E-03  4690   0.300E-02    0.202E-01
RMM:   4    -0.232184204171E+04   -0.43919E-03   -0.22673E-03  4844   0.194E-02    0.296E-01
RMM:   5    -0.232184133810E+04    0.70361E-03   -0.87209E-04  4309   0.130E-02    0.906E-02
RMM:   6    -0.232184128580E+04    0.52303E-04   -0.20557E-04  3217   0.734E-03    0.549E-02
RMM:   7    -0.232184124291E+04    0.42891E-04   -0.36121E-05  2756   0.415E-03    0.152E-02
RMM:   8    -0.232184124355E+04   -0.64196E-06   -0.18109E-05  2643   0.233E-03
  14 F= -.23432352E+04 E0= -.23432352E+04  d E =-.323867E-06  mag=     4.0000
       N       E                     dE             d eps       ncg     rms          rms(c)
DAV:   1    -0.232184135187E+04   -0.10896E-03   -0.11781E+00  4400   0.396E-01    0.393E-01
RMM:   2    -0.232184136684E+04   -0.14972E-04   -0.68696E-03  4462   0.324E-02    0.273E-01
RMM:   3    -0.232184164482E+04   -0.27798E-03   -0.26014E-03  4728   0.237E-02    0.337E-01
RMM:   4    -0.232184125761E+04    0.38721E-03   -0.18124E-03  4739   0.169E-02    0.242E-01
RMM:   5    -0.232184079208E+04    0.46553E-03   -0.61880E-04  4145   0.128E-02    0.878E-02
RMM:   6    -0.232184069850E+04    0.93573E-04   -0.16828E-04  3186   0.746E-03    0.356E-02
RMM:   7    -0.232184068085E+04    0.17653E-04   -0.20200E-05  2743   0.336E-03    0.942E-03
RMM:   8    -0.232184068124E+04   -0.38520E-06   -0.60826E-06  2586   0.191E-03
  15 F= -.23432353E+04 E0= -.23432353E+04  d E =-.330905E-06  mag=     4.0000
       N       E                     dE             d eps       ncg     rms          rms(c)
DAV:   1    -0.232183599324E+04    0.46876E-02   -0.60011E-01  4320   0.291E-01    0.286E-01
RMM:   2    -0.232183586350E+04    0.12975E-03   -0.35635E-03  3933   0.250E-02    0.194E-01
RMM:   3    -0.232183622185E+04   -0.35835E-03   -0.12982E-03  4384   0.177E-02    0.259E-01
RMM:   4    -0.232183587275E+04    0.34911E-03   -0.10146E-03  3916   0.136E-02    0.166E-01
RMM:   5    -0.232183560157E+04    0.27117E-03   -0.34719E-04  3530   0.103E-02    0.520E-02
RMM:   6    -0.232183556409E+04    0.37480E-04   -0.57665E-05  2759   0.466E-03    0.157E-02
RMM:   7    -0.232183556070E+04    0.33884E-05   -0.75644E-06  2453   0.201E-03
  16 F= -.23432297E+04 E0= -.23432297E+04  d E =-.324374E-06  mag=     4.0000
       N       E                     dE             d eps       ncg     rms          rms(c)
DAV:   1    -0.232183885899E+04   -0.32949E-02   -0.12262E+00  4760   0.419E-01    0.509E-01
RMM:   2    -0.232183737854E+04    0.14804E-02   -0.16456E-02  4449   0.498E-02    0.368E-01
RMM:   3    -0.232183584448E+04    0.15341E-02   -0.31986E-03  5087   0.291E-02    0.236E-01
RMM:   4    -0.232183659587E+04   -0.75138E-03   -0.24984E-03  5070   0.226E-02    0.314E-01
RMM:   5    -0.232183543018E+04    0.11657E-02   -0.11579E-03  4539   0.159E-02    0.143E-01
RMM:   6    -0.232183525452E+04    0.17566E-03   -0.31610E-04  3321   0.868E-03    0.618E-02
RMM:   7    -0.232183521319E+04    0.41327E-04   -0.57033E-05  2913   0.465E-03    0.233E-02
RMM:   8    -0.232183520947E+04    0.37161E-05   -0.16246E-05  2580   0.293E-03
  17 F= -.23432296E+04 E0= -.23432296E+04  d E =-.332589E-06  mag=     4.0000
       N       E                     dE             d eps       ncg     rms          rms(c)
DAV:   1    -0.232183956220E+04   -0.43490E-02   -0.64777E-01  4880   0.299E-01    0.481E-01
RMM:   2    -0.232183800322E+04    0.15590E-02   -0.17837E-02  5167   0.477E-02    0.400E-01
RMM:   3    -0.232183599547E+04    0.20077E-02   -0.36286E-03  5370   0.304E-02    0.287E-01
RMM:   4    -0.232183606834E+04   -0.72873E-04   -0.20883E-03  4889   0.204E-02    0.304E-01
RMM:   5    -0.232183521878E+04    0.84956E-03   -0.96087E-04  4453   0.138E-02    0.131E-01
RMM:   6    -0.232183508290E+04    0.13588E-03   -0.39421E-04  3509   0.996E-03    0.626E-02
RMM:   7    -0.232183502465E+04    0.58252E-04   -0.55380E-05  2987   0.478E-03    0.115E-02
RMM:   8    -0.232183502323E+04    0.14162E-05   -0.11663E-05  2610   0.253E-03
  18 F= -.23432288E+04 E0= -.23432288E+04  d E =-.338782E-06  mag=     4.0000
       N       E                     dE             d eps       ncg     rms          rms(c)
DAV:   1    -0.232184080951E+04   -0.57849E-02   -0.12227E+00  4680   0.419E-01    0.596E-01
RMM:   2    -0.232183889781E+04    0.19117E-02   -0.26487E-02  5273   0.580E-02    0.501E-01
RMM:   3    -0.232183631501E+04    0.25828E-02   -0.60071E-03  5717   0.378E-02    0.412E-01
RMM:   4    -0.232183563727E+04    0.67773E-03   -0.31598E-03  5244   0.251E-02    0.336E-01
RMM:   5    -0.232183477280E+04    0.86448E-03   -0.13944E-03  4448   0.158E-02    0.159E-01
RMM:   6    -0.232183454068E+04    0.23212E-03   -0.58938E-04  3879   0.124E-02    0.708E-02
RMM:   7    -0.232183446884E+04    0.71834E-04   -0.74319E-05  3092   0.526E-03    0.212E-02
RMM:   8    -0.232183446760E+04    0.12463E-05   -0.21560E-05  2614   0.310E-03
  19 F= -.23432292E+04 E0= -.23432292E+04  d E =-.314850E-06  mag=     4.0000
       N       E                     dE             d eps       ncg     rms          rms(c)
DAV:   1    -0.232184291666E+04   -0.84478E-02   -0.59892E-01  4840   0.372E-01    0.337E-01
RMM:   2    -0.232184227842E+04    0.63824E-03   -0.75000E-03  5058   0.375E-02    0.242E-01
RMM:   3    -0.232184168934E+04    0.58908E-03   -0.14292E-03  4487   0.201E-02    0.172E-01
RMM:   4    -0.232184209320E+04   -0.40385E-03   -0.11465E-03  4304   0.147E-02    0.249E-01
RMM:   5    -0.232184150099E+04    0.59221E-03   -0.53075E-04  4040   0.114E-02    0.811E-02
RMM:   6    -0.232184144555E+04    0.55435E-04   -0.15767E-04  3041   0.682E-03    0.409E-02
RMM:   7    -0.232184142067E+04    0.24884E-04   -0.23338E-05  2719   0.346E-03    0.116E-02
RMM:   8    -0.232184142027E+04    0.39875E-06   -0.76594E-06  2489   0.204E-03
  20 F= -.23432356E+04 E0= -.23432356E+04  d E =-.384149E-06  mag=     4.0000
       N       E                     dE             d eps       ncg     rms          rms(c)
DAV:   1    -0.232184173148E+04   -0.31081E-03   -0.11739E+00  4480   0.523E-01    0.374E-01
RMM:   2    -0.232184197998E+04   -0.24850E-03   -0.55957E-03  5259   0.444E-02    0.280E-01
RMM:   3    -0.232184263543E+04   -0.65546E-03   -0.30707E-03  5231   0.283E-02    0.337E-01
RMM:   4    -0.232184206092E+04    0.57451E-03   -0.16542E-03  4836   0.195E-02    0.260E-01
RMM:   5    -0.232184137794E+04    0.68298E-03   -0.65820E-04  3748   0.123E-02    0.564E-02
RMM:   6    -0.232184134603E+04    0.31911E-04   -0.68778E-05  2979   0.544E-03    0.215E-02
RMM:   7    -0.232184134265E+04    0.33761E-05   -0.18071E-05  2745   0.296E-03
  21 F= -.23432357E+04 E0= -.23432357E+04  d E =-.275413E-06  mag=     4.0000
       N       E                     dE             d eps       ncg     rms          rms(c)
DAV:   1    -0.232183283966E+04    0.85064E-02   -0.63079E-01  4800   0.389E-01    0.347E-01
RMM:   2    -0.232183198170E+04    0.85796E-03   -0.63987E-03  4550   0.406E-02    0.217E-01
RMM:   3    -0.232183196268E+04    0.19020E-04   -0.17295E-03  4335   0.258E-02    0.199E-01
RMM:   4    -0.232183168853E+04    0.27415E-03   -0.10826E-03  4405   0.162E-02    0.136E-01
RMM:   5    -0.232183150337E+04    0.18516E-03   -0.35722E-04  3700   0.987E-03    0.757E-02
RMM:   6    -0.232183145929E+04    0.44081E-04   -0.93000E-05  2971   0.570E-03    0.373E-02
RMM:   7    -0.232183144650E+04    0.12790E-04   -0.20729E-05  2639   0.299E-03    0.170E-02
RMM:   8    -0.232183144410E+04    0.24014E-05   -0.72225E-06  2457   0.215E-03
  22 F= -.23432249E+04 E0= -.23432249E+04  d E =-.344555E-06  mag=     4.0000
       N       E                     dE             d eps       ncg     rms          rms(c)
DAV:   1    -0.232183670871E+04   -0.52622E-02   -0.12913E+00  4960   0.552E-01    0.582E-01
RMM:   2    -0.232183267832E+04    0.40304E-02   -0.23526E-02  5066   0.720E-02    0.364E-01
RMM:   3    -0.232183232763E+04    0.35069E-03   -0.49857E-03  4772   0.469E-02    0.361E-01
RMM:   4    -0.232183174809E+04    0.57955E-03   -0.28460E-03  5419   0.254E-02    0.317E-01
RMM:   5    -0.232183105815E+04    0.68994E-03   -0.15134E-03  4477   0.169E-02    0.206E-01
RMM:   6    -0.232183067357E+04    0.38458E-03   -0.61673E-04  3714   0.128E-02    0.726E-02
RMM:   7    -0.232183060496E+04    0.68609E-04   -0.74859E-05  3075   0.536E-03    0.178E-02
RMM:   8    -0.232183060534E+04   -0.38363E-06   -0.23364E-05  2739   0.330E-03
  23 F= -.23432257E+04 E0= -.23432257E+04  d E =-.302195E-06  mag=     4.0000
       N       E                     dE             d eps       ncg     rms          rms(c)
DAV:   1    -0.232184147545E+04   -0.10870E-01   -0.66120E-01  5000   0.406E-01    0.448E-01
RMM:   2    -0.232183878892E+04    0.26865E-02   -0.14543E-02  4925   0.552E-02    0.267E-01
RMM:   3    -0.232183812007E+04    0.66884E-03   -0.24905E-03  4233   0.326E-02    0.202E-01
RMM:   4    -0.232183823375E+04   -0.11368E-03   -0.15692E-03  5016   0.188E-02    0.211E-01
RMM:   5    -0.232183773370E+04    0.50005E-03   -0.76547E-04  4362   0.143E-02    0.118E-01
RMM:   6    -0.232183763192E+04    0.10178E-03   -0.23775E-04  3121   0.715E-03    0.772E-02
RMM:   7    -0.232183757543E+04    0.56492E-04   -0.46458E-05  2794   0.442E-03    0.134E-02
RMM:   8    -0.232183757537E+04    0.55399E-07   -0.16646E-05  2647   0.271E-03
  24 F= -.23432318E+04 E0= -.23432318E+04  d E =-.321569E-06  mag=     4.0000
       N       E                     dE             d eps       ncg     rms          rms(c)
DAV:   1    -0.232184016920E+04   -0.25938E-02   -0.12145E+00  4760   0.537E-01    0.469E-01
RMM:   2    -0.232183824729E+04    0.19219E-02   -0.13002E-02  4855   0.553E-02    0.275E-01
RMM:   3    -0.232183790001E+04    0.34728E-03   -0.23660E-03  4081   0.319E-02    0.245E-01
RMM:   4    -0.232183820993E+04   -0.30992E-03   -0.19539E-03  4639   0.180E-02    0.303E-01
RMM:   5    -0.232183751409E+04    0.69584E-03   -0.77594E-04  4538   0.142E-02    0.960E-02
RMM:   6    -0.232183741967E+04    0.94415E-04   -0.19770E-04  3534   0.787E-03    0.497E-02
RMM:   7    -0.232183738434E+04    0.35336E-04   -0.44026E-05  2854   0.477E-03    0.163E-02
RMM:   8    -0.232183738420E+04    0.13539E-06   -0.14538E-05  2739   0.254E-03
  25 F= -.23432317E+04 E0= -.23432317E+04  d E =-.334813E-06  mag=     4.0000
