       N       E                     dE             d eps       ncg     rms          rms(c)
DAV:   1     0.124709389309E+05    0.12471E+05   -0.82098E+05  4416   0.143E+03
DAV:   2    -0.110059651956E+04   -0.13572E+05   -0.13022E+05  5336   0.329E+02
DAV:   3    -0.247686224471E+04   -0.13763E+04   -0.13651E+04  5272   0.108E+02
DAV:   4    -0.251511575427E+04   -0.38254E+02   -0.38076E+02  6280   0.253E+01
DAV:   5    -0.251588126201E+04   -0.76551E+00   -0.76449E+00  5504   0.294E+00    0.170E+02
RMM:   6    -0.146806416611E+04    0.10478E+04   -0.19418E+03  4354   0.389E+01    0.725E+01
RMM:   7    -0.163557538505E+04   -0.16751E+03   -0.27070E+02  4930   0.140E+01    0.485E+01
RMM:   8    -0.169446293952E+04   -0.58888E+02   -0.39200E+01  4842   0.699E+00    0.352E+01
RMM:   9    -0.184318455665E+04   -0.14872E+03   -0.71615E+01  4662   0.868E+00    0.221E+01
RMM:  10    -0.199091932554E+04   -0.14773E+03   -0.63487E+01  4581   0.726E+00    0.156E+01
RMM:  11    -0.212112936536E+04   -0.13021E+03   -0.78548E+01  4499   0.661E+00    0.119E+01
RMM:  12    -0.228120363256E+04   -0.16007E+03   -0.17381E+02  4347   0.868E+00    0.533E+00
RMM:  13    -0.230102279051E+04   -0.19819E+02   -0.25226E+01  4416   0.491E+00    0.357E+00
RMM:  14    -0.230796064504E+04   -0.69379E+01   -0.99183E+00  4641   0.209E+00    0.195E+00
RMM:  15    -0.230957060345E+04   -0.16100E+01   -0.14054E+00  4768   0.128E+00    0.138E+00
RMM:  16    -0.231004999119E+04   -0.47939E+00   -0.36026E-01  4849   0.478E-01    0.526E-01
RMM:  17    -0.231029378870E+04   -0.24380E+00   -0.75994E-02  4716   0.295E-01    0.361E-01
RMM:  18    -0.231034146185E+04   -0.47673E-01   -0.34122E-02  4517   0.143E-01    0.180E-01
RMM:  19    -0.231036018146E+04   -0.18720E-01   -0.10428E-02  4465   0.112E-01    0.105E-01
RMM:  20    -0.231037747296E+04   -0.17291E-01   -0.73037E-03  4377   0.690E-02    0.738E-02
RMM:  21    -0.231038298323E+04   -0.55103E-02   -0.19915E-03  4512   0.495E-02    0.556E-02
RMM:  22    -0.231038983238E+04   -0.68492E-02   -0.23210E-03  4358   0.341E-02    0.298E-02
RMM:  23    -0.231039264788E+04   -0.28155E-02   -0.96704E-04  4122   0.305E-02    0.220E-02
RMM:  24    -0.231039328812E+04   -0.64024E-03   -0.29048E-04  4189   0.147E-02    0.156E-02
RMM:  25    -0.231039379887E+04   -0.51075E-03   -0.12734E-04  3606   0.102E-02    0.785E-03
RMM:  26    -0.231039407075E+04   -0.27188E-03   -0.82857E-05  3566   0.911E-03    0.464E-03
RMM:  27    -0.231039416139E+04   -0.90640E-04   -0.30823E-05  3184   0.599E-03    0.298E-03
RMM:  28    -0.231039422391E+04   -0.62514E-04   -0.22024E-05  3066   0.468E-03    0.199E-03
RMM:  29    -0.231039424171E+04   -0.17806E-04   -0.10649E-05  2842   0.381E-03    0.122E-03
RMM:  30    -0.231039424403E+04   -0.23153E-05   -0.44131E-06  2425   0.250E-03
   1 F= -.23304692E+04 E0= -.23304692E+04  d E =-.233047E+04  mag=     2.0000
       N       E                     dE             d eps       ncg     rms          rms(c)
DAV:   1    -0.231043026810E+04   -0.36026E-01   -0.23378E+01  4920   0.311E+00    0.157E+00
RMM:   2    -0.231075355400E+04   -0.32329E+00   -0.35669E+00  6169   0.748E-01    0.920E-01
RMM:   3    -0.231078448114E+04   -0.30927E-01   -0.42738E-01  5271   0.373E-01    0.691E-01
RMM:   4    -0.231078255076E+04    0.19304E-02   -0.44044E-02  5717   0.673E-02    0.385E-01
RMM:   5    -0.231078101650E+04    0.15343E-02   -0.42759E-03  4930   0.289E-02    0.205E-01
RMM:   6    -0.231078078111E+04    0.23539E-03   -0.16049E-03  4817   0.237E-02    0.675E-02
RMM:   7    -0.231078076928E+04    0.11831E-04   -0.32875E-04  3995   0.121E-02    0.399E-02
RMM:   8    -0.231078074961E+04    0.19661E-04   -0.85696E-05  3159   0.687E-03    0.184E-02
RMM:   9    -0.231078074705E+04    0.25601E-05   -0.32401E-05  2895   0.466E-03
   2 F= -.23308640E+04 E0= -.23308640E+04  d E =-.394762E+00  mag=     2.0000
       N       E                     dE             d eps       ncg     rms          rms(c)
DAV:   1    -0.231076485992E+04    0.15890E-01   -0.33928E+00  4616   0.114E+00    0.594E-01
RMM:   2    -0.231081014683E+04   -0.45287E-01   -0.50032E-01  6208   0.283E-01    0.356E-01
RMM:   3    -0.231081395814E+04   -0.38113E-02   -0.56454E-02  5273   0.109E-01    0.244E-01
RMM:   4    -0.231081383515E+04    0.12299E-03   -0.62086E-03  4877   0.236E-02    0.142E-01
RMM:   5    -0.231081358828E+04    0.24686E-03   -0.60598E-04  4296   0.119E-02    0.720E-02
RMM:   6    -0.231081356568E+04    0.22604E-04   -0.21162E-04  3803   0.971E-03    0.242E-02
RMM:   7    -0.231081356502E+04    0.65983E-06   -0.48886E-05  2956   0.580E-03
   3 F= -.23308977E+04 E0= -.23308977E+04  d E =-.428480E+00  mag=     2.0000
       N       E                     dE             d eps       ncg     rms          rms(c)
DAV:   1    -0.231093627541E+04   -0.12271E+00   -0.10455E+01  4496   0.205E+00    0.104E+00
RMM:   2    -0.231107856595E+04   -0.14229E+00   -0.14834E+00  6357   0.510E-01    0.675E-01
RMM:   3    -0.231109066257E+04   -0.12097E-01   -0.17725E-01  5486   0.190E-01    0.521E-01
RMM:   4    -0.231108916515E+04    0.14974E-02   -0.18734E-02  5152   0.444E-02    0.309E-01
RMM:   5    -0.231108802836E+04    0.11368E-02   -0.41732E-03  5170   0.271E-02    0.118E-01
RMM:   6    -0.231108804896E+04   -0.20602E-04   -0.56703E-04  4223   0.149E-02    0.394E-02
RMM:   7    -0.231108804850E+04    0.46504E-06   -0.95375E-05  3066   0.654E-03
   4 F= -.23311729E+04 E0= -.23311729E+04  d E =-.275256E+00  mag=     2.0000
       N       E                     dE             d eps       ncg     rms          rms(c)
DAV:   1    -0.231097261419E+04    0.11543E+00   -0.15761E+01  4448   0.246E+00    0.125E+00
RMM:   2    -0.231118408745E+04   -0.21147E+00   -0.21736E+00  6434   0.622E-01    0.799E-01
RMM:   3    -0.231120171777E+04   -0.17630E-01   -0.24779E-01  5564   0.193E-01    0.625E-01
RMM:   4    -0.231119957639E+04    0.21414E-02   -0.26456E-02  5273   0.516E-02    0.370E-01
RMM:   5    -0.231119804205E+04    0.15343E-02   -0.57248E-03  5157   0.311E-02    0.149E-01
RMM:   6    -0.231119809145E+04   -0.49408E-04   -0.95257E-04  4432   0.192E-02    0.516E-02
RMM:   7    -0.231119810315E+04   -0.11699E-04   -0.15541E-04  3329   0.786E-03    0.308E-02
RMM:   8    -0.231119809613E+04    0.70253E-05   -0.47279E-05  2934   0.513E-03
   5 F= -.23312836E+04 E0= -.23312836E+04  d E =-.385898E+00  mag=     2.0000
       N       E                     dE             d eps       ncg     rms          rms(c)
DAV:   1    -0.231137114014E+04   -0.17304E+00   -0.10657E+01  4432   0.182E+00    0.785E-01
RMM:   2    -0.231139920551E+04   -0.28065E-01   -0.34276E-01  5978   0.298E-01    0.477E-01
RMM:   3    -0.231139893069E+04    0.27481E-03   -0.33189E-02  5128   0.971E-02    0.285E-01
RMM:   4    -0.231139875887E+04    0.17182E-03   -0.74924E-03  4802   0.398E-02    0.148E-01
RMM:   5    -0.231139852310E+04    0.23577E-03   -0.11799E-03  4644   0.200E-02    0.826E-02
RMM:   6    -0.231139849607E+04    0.27031E-04   -0.22780E-04  3210   0.825E-03    0.408E-02
RMM:   7    -0.231139852568E+04   -0.29615E-04   -0.97874E-05  2948   0.545E-03    0.266E-02
RMM:   8    -0.231139853018E+04   -0.44952E-05   -0.20879E-05  2829   0.363E-03
   6 F= -.23314860E+04 E0= -.23314860E+04  d E =-.202408E+00  mag=     2.0000
       N       E                     dE             d eps       ncg     rms          rms(c)
DAV:   1    -0.231143545450E+04   -0.36929E-01   -0.77865E+00  4420   0.160E+00    0.656E-01
RMM:   2    -0.231145546351E+04   -0.20009E-01   -0.24255E-01  5954   0.256E-01    0.405E-01
RMM:   3    -0.231145543511E+04    0.28398E-04   -0.24637E-02  4933   0.839E-02    0.237E-01
RMM:   4    -0.231145555473E+04   -0.11962E-03   -0.51888E-03  4784   0.325E-02    0.139E-01
RMM:   5    -0.231145536255E+04    0.19219E-03   -0.77174E-04  4444   0.160E-02    0.844E-02
RMM:   6    -0.231145532668E+04    0.35865E-04   -0.17386E-04  3152   0.762E-03    0.461E-02
RMM:   7    -0.231145536070E+04   -0.34017E-04   -0.92121E-05  2997   0.542E-03    0.335E-02
RMM:   8    -0.231145536492E+04   -0.42259E-05   -0.23964E-05  2817   0.380E-03
   7 F= -.23315445E+04 E0= -.23315445E+04  d E =-.260941E+00  mag=     2.0000
       N       E                     dE             d eps       ncg     rms          rms(c)
DAV:   1    -0.231148594581E+04   -0.30585E-01   -0.83174E+00  4448   0.198E+00    0.109E+00
RMM:   2    -0.231161697858E+04   -0.13103E+00   -0.14316E+00  6354   0.520E-01    0.598E-01
RMM:   3    -0.231162637653E+04   -0.93979E-02   -0.14736E-01  5599   0.157E-01    0.382E-01
RMM:   4    -0.231162668517E+04   -0.30865E-03   -0.19110E-02  5485   0.409E-02    0.256E-01
RMM:   5    -0.231162614242E+04    0.54275E-03   -0.20294E-03  4747   0.191E-02    0.148E-01
RMM:   6    -0.231162601660E+04    0.12582E-03   -0.85792E-04  4749   0.179E-02    0.520E-02
RMM:   7    -0.231162604487E+04   -0.28272E-04   -0.16134E-04  3451   0.958E-03    0.382E-02
RMM:   8    -0.231162604293E+04    0.19410E-05   -0.31816E-05  2855   0.432E-03
   8 F= -.23317163E+04 E0= -.23317163E+04  d E =-.171806E+00  mag=     2.0000
       N       E                     dE             d eps       ncg     rms          rms(c)
DAV:   1    -0.231134977187E+04    0.27627E+00   -0.22898E+01  4376   0.333E+00    0.179E+00
RMM:   2    -0.231171522222E+04   -0.36545E+00   -0.39743E+00  6402   0.900E-01    0.927E-01
RMM:   3    -0.231174172848E+04   -0.26506E-01   -0.38139E-01  5729   0.242E-01    0.652E-01
RMM:   4    -0.231174168202E+04    0.46455E-04   -0.49040E-02  5807   0.668E-02    0.437E-01
RMM:   5    -0.231174032449E+04    0.13575E-02   -0.56037E-03  4731   0.327E-02    0.247E-01
RMM:   6    -0.231174004057E+04    0.28392E-03   -0.22611E-03  4707   0.310E-02    0.999E-02
RMM:   7    -0.231174017860E+04   -0.13803E-03   -0.38534E-04  4487   0.134E-02    0.935E-02
RMM:   8    -0.231174015141E+04    0.27194E-04   -0.69863E-05  2964   0.567E-03    0.743E-02
RMM:   9    -0.231174009700E+04    0.54402E-04   -0.14759E-04  3133   0.594E-03    0.424E-02
RMM:  10    -0.231174010380E+04   -0.67926E-05   -0.34796E-05  2844   0.451E-03
   9 F= -.23318323E+04 E0= -.23318323E+04  d E =-.287817E+00  mag=     2.0000
       N       E                     dE             d eps       ncg     rms          rms(c)
DAV:   1    -0.231170374364E+04    0.36353E-01   -0.96969E+00  4432   0.227E+00    0.115E+00
RMM:   2    -0.231183712689E+04   -0.13338E+00   -0.14691E+00  6262   0.567E-01    0.640E-01
RMM:   3    -0.231184494392E+04   -0.78170E-02   -0.14164E-01  5460   0.168E-01    0.423E-01
RMM:   4    -0.231184452783E+04    0.41608E-03   -0.22924E-02  5613   0.515E-02    0.273E-01
RMM:   5    -0.231184354327E+04    0.98456E-03   -0.26476E-03  4732   0.261E-02    0.126E-01
RMM:   6    -0.231184347412E+04    0.69154E-04   -0.84915E-04  4580   0.198E-02    0.467E-02
RMM:   7    -0.231184346443E+04    0.96881E-05   -0.11906E-04  3573   0.936E-03    0.296E-02
RMM:   8    -0.231184346648E+04   -0.20449E-05   -0.27391E-05  2893   0.468E-03
  10 F= -.23319367E+04 E0= -.23319367E+04  d E =-.104399E+00  mag=     2.0000
       N       E                     dE             d eps       ncg     rms          rms(c)
DAV:   1    -0.231183527266E+04    0.81918E-02   -0.10289E+00  4600   0.728E-01    0.374E-01
RMM:   2    -0.231184920571E+04   -0.13933E-01   -0.15303E-01  6139   0.176E-01    0.206E-01
RMM:   3    -0.231185020712E+04   -0.10014E-02   -0.16017E-02  5005   0.652E-02    0.135E-01
RMM:   4    -0.231185018909E+04    0.18031E-04   -0.23166E-03  4541   0.170E-02    0.893E-02
RMM:   5    -0.231185009356E+04    0.95530E-04   -0.27952E-04  3843   0.958E-03    0.422E-02
RMM:   6    -0.231185008612E+04    0.74466E-05   -0.91408E-05  3337   0.787E-03
  11 F= -.23319437E+04 E0= -.23319437E+04  d E =-.111364E+00  mag=     2.0000
       N       E                     dE             d eps       ncg     rms          rms(c)
DAV:   1    -0.231189286511E+04   -0.42772E-01   -0.24938E+00  4416   0.106E+00    0.525E-01
RMM:   2    -0.231190332134E+04   -0.10456E-01   -0.13170E-01  5858   0.205E-01    0.316E-01
RMM:   3    -0.231190310906E+04    0.21228E-03   -0.12177E-02  5124   0.615E-02    0.188E-01
RMM:   4    -0.231190309731E+04    0.11756E-04   -0.29221E-03  4453   0.278E-02    0.125E-01
RMM:   5    -0.231190311848E+04   -0.21171E-04   -0.34070E-04  3504   0.110E-02    0.104E-01
RMM:   6    -0.231190303270E+04    0.85775E-04   -0.18456E-04  3194   0.634E-03    0.611E-02
RMM:   7    -0.231190304495E+04   -0.12243E-04   -0.93603E-05  3064   0.561E-03    0.493E-02
RMM:   8    -0.231190304601E+04   -0.10651E-05   -0.44721E-05  2865   0.432E-03
  12 F= -.23319963E+04 E0= -.23319963E+04  d E =-.526090E-01  mag=     2.0000
       N       E                     dE             d eps       ncg     rms          rms(c)
DAV:   1    -0.231190174064E+04    0.13043E-02   -0.82642E+00  4376   0.193E+00    0.862E-01
RMM:   2    -0.231193846477E+04   -0.36724E-01   -0.43931E-01  5784   0.374E-01    0.521E-01
RMM:   3    -0.231193790318E+04    0.56159E-03   -0.35764E-02  5169   0.108E-01    0.323E-01
RMM:   4    -0.231193747288E+04    0.43030E-03   -0.91032E-03  4695   0.485E-02    0.178E-01
RMM:   5    -0.231193759179E+04   -0.11891E-03   -0.94455E-04  4467   0.202E-02    0.148E-01
RMM:   6    -0.231193743762E+04    0.15417E-03   -0.28715E-04  3416   0.817E-03    0.980E-02
RMM:   7    -0.231193740951E+04    0.28113E-04   -0.22782E-04  3232   0.741E-03    0.662E-02
RMM:   8    -0.231193742960E+04   -0.20094E-04   -0.69907E-05  2888   0.498E-03    0.358E-02
RMM:   9    -0.231193742464E+04    0.49560E-05   -0.26418E-05  2752   0.336E-03
  13 F= -.23320301E+04 E0= -.23320301E+04  d E =-.863943E-01  mag=     2.0000
       N       E                     dE             d eps       ncg     rms          rms(c)
DAV:   1    -0.231196059542E+04   -0.23166E-01   -0.95062E-01  4480   0.642E-01    0.260E-01
RMM:   2    -0.231196616156E+04   -0.55661E-02   -0.60294E-02  6155   0.108E-01    0.156E-01
RMM:   3    -0.231196647492E+04   -0.31336E-03   -0.51832E-03  4580   0.348E-02    0.102E-01
RMM:   4    -0.231196643166E+04    0.43255E-04   -0.88903E-04  4160   0.134E-02    0.539E-02
RMM:   5    -0.231196641977E+04    0.11896E-04   -0.15056E-04  3378   0.758E-03    0.309E-02
RMM:   6    -0.231196641662E+04    0.31465E-05   -0.19956E-05  2801   0.428E-03
  14 F= -.23320592E+04 E0= -.23320592E+04  d E =-.290695E-01  mag=     2.0000
       N       E                     dE             d eps       ncg     rms          rms(c)
DAV:   1    -0.231196509349E+04    0.13263E-02   -0.84967E+00  4388   0.191E+00    0.775E-01
RMM:   2    -0.231201525363E+04   -0.50160E-01   -0.54201E-01  6085   0.323E-01    0.466E-01
RMM:   3    -0.231201864075E+04   -0.33871E-02   -0.54215E-02  5216   0.108E-01    0.326E-01
RMM:   4    -0.231201816572E+04    0.47503E-03   -0.79669E-03  5059   0.367E-02    0.182E-01
RMM:   5    -0.231201793033E+04    0.23539E-03   -0.19817E-03  4640   0.220E-02    0.106E-01
RMM:   6    -0.231201799906E+04   -0.68730E-04   -0.20477E-04  3351   0.114E-02    0.994E-02
RMM:   7    -0.231201793263E+04    0.66435E-04   -0.10353E-04  2952   0.527E-03    0.604E-02
RMM:   8    -0.231201789988E+04    0.32750E-04   -0.74339E-05  2893   0.481E-03    0.260E-02
RMM:   9    -0.231201789984E+04    0.39305E-07   -0.12200E-05  2801   0.348E-03
  15 F= -.23321109E+04 E0= -.23321109E+04  d E =-.808279E-01  mag=     2.0000
       N       E                     dE             d eps       ncg     rms          rms(c)
DAV:   1    -0.231176320470E+04    0.25470E+00   -0.33531E+01  4376   0.372E+00    0.152E+00
RMM:   2    -0.231196831668E+04   -0.20511E+00   -0.21929E+00  6136   0.657E-01    0.910E-01
RMM:   3    -0.231198418670E+04   -0.15870E-01   -0.23875E-01  5336   0.220E-01    0.663E-01
RMM:   4    -0.231198293815E+04    0.12485E-02   -0.30877E-02  5319   0.683E-02    0.403E-01
RMM:   5    -0.231198099413E+04    0.19440E-02   -0.81365E-03  4791   0.425E-02    0.160E-01
RMM:   6    -0.231198169698E+04   -0.70285E-03   -0.10673E-03  4411   0.254E-02    0.193E-01
RMM:   7    -0.231198167190E+04    0.25086E-04   -0.24445E-04  3444   0.830E-03    0.160E-01
RMM:   8    -0.231198141746E+04    0.25444E-03   -0.47334E-04  3568   0.977E-03    0.447E-02
RMM:   9    -0.231198141776E+04   -0.29562E-06   -0.66642E-05  2924   0.553E-03
  16 F= -.23320752E+04 E0= -.23320752E+04  d E =-.450652E-01  mag=     2.0000
       N       E                     dE             d eps       ncg     rms          rms(c)
DAV:   1    -0.231192235462E+04    0.59063E-01   -0.16385E+01  4376   0.262E+00    0.108E+00
RMM:   2    -0.231201968509E+04   -0.97330E-01   -0.10279E+00  6118   0.442E-01    0.708E-01
RMM:   3    -0.231202618071E+04   -0.64956E-02   -0.10865E-01  5183   0.159E-01    0.438E-01
RMM:   4    -0.231202609704E+04    0.83673E-04   -0.14232E-02  4901   0.470E-02    0.296E-01
RMM:   5    -0.231202602650E+04    0.70542E-04   -0.17321E-03  4727   0.262E-02    0.229E-01
RMM:   6    -0.231202549130E+04    0.53519E-03   -0.11562E-03  4030   0.143E-02    0.109E-01
RMM:   7    -0.231202567296E+04   -0.18166E-03   -0.46573E-04  4099   0.117E-02    0.934E-02
RMM:   8    -0.231202564467E+04    0.28291E-04   -0.19002E-04  3081   0.764E-03    0.277E-02
RMM:   9    -0.231202563162E+04    0.13059E-04   -0.37828E-05  2889   0.429E-03    0.146E-02
RMM:  10    -0.231202562797E+04    0.36432E-05   -0.20574E-05  2857   0.355E-03
  17 F= -.23321188E+04 E0= -.23321188E+04  d E =-.887500E-01  mag=     2.0000
       N       E                     dE             d eps       ncg     rms          rms(c)
DAV:   1    -0.231204188029E+04   -0.16249E-01   -0.70832E-01  4432   0.697E-01    0.323E-01
RMM:   2    -0.231204699687E+04   -0.51166E-02   -0.64765E-02  5761   0.126E-01    0.170E-01
RMM:   3    -0.231204718581E+04   -0.18894E-03   -0.55410E-03  4942   0.525E-02    0.106E-01
RMM:   4    -0.231204712470E+04    0.61111E-04   -0.86648E-04  4484   0.161E-02    0.541E-02
RMM:   5    -0.231204709967E+04    0.25029E-04   -0.11918E-04  3698   0.106E-02    0.208E-02
RMM:   6    -0.231204709586E+04    0.38093E-05   -0.19366E-05  2827   0.415E-03
  18 F= -.23321405E+04 E0= -.23321405E+04  d E =-.216654E-01  mag=     2.0000
       N       E                     dE             d eps       ncg     rms          rms(c)
DAV:   1    -0.231204843011E+04   -0.13304E-02   -0.70905E-01  4440   0.699E-01    0.322E-01
RMM:   2    -0.231205364890E+04   -0.52188E-02   -0.65463E-02  5796   0.126E-01    0.170E-01
RMM:   3    -0.231205383485E+04   -0.18595E-03   -0.55145E-03  4994   0.517E-02    0.106E-01
RMM:   4    -0.231205377953E+04    0.55317E-04   -0.88260E-04  4472   0.159E-02    0.557E-02
RMM:   5    -0.231205375367E+04    0.25863E-04   -0.11151E-04  3581   0.103E-02    0.262E-02
RMM:   6    -0.231205374651E+04    0.71601E-05   -0.24498E-05  2832   0.435E-03
  19 F= -.23321474E+04 E0= -.23321474E+04  d E =-.285206E-01  mag=     2.0000
       N       E                     dE             d eps       ncg     rms          rms(c)
DAV:   1    -0.231205839160E+04   -0.46379E-02   -0.33296E-01  4432   0.491E-01    0.205E-01
RMM:   2    -0.231206142564E+04   -0.30340E-02   -0.34422E-02  6043   0.966E-02    0.109E-01
RMM:   3    -0.231206160813E+04   -0.18250E-03   -0.35835E-03  4777   0.342E-02    0.670E-02
RMM:   4    -0.231206158963E+04    0.18506E-04   -0.48560E-04  4050   0.110E-02    0.386E-02
RMM:   5    -0.231206157365E+04    0.15972E-04   -0.54632E-05  3028   0.695E-03    0.188E-02
RMM:   6    -0.231206157209E+04    0.15660E-05   -0.15080E-05  2808   0.407E-03
  20 F= -.23321554E+04 E0= -.23321554E+04  d E =-.800099E-02  mag=     2.0000
       N       E                     dE             d eps       ncg     rms          rms(c)
DAV:   1    -0.231206064827E+04    0.92538E-03   -0.36941E-01  4400   0.519E-01    0.215E-01
RMM:   2    -0.231206406209E+04   -0.34138E-02   -0.38537E-02  6016   0.102E-01    0.114E-01
RMM:   3    -0.231206426843E+04   -0.20634E-03   -0.39641E-03  4774   0.356E-02    0.704E-02
RMM:   4    -0.231206424579E+04    0.22641E-04   -0.53380E-04  4146   0.114E-02    0.404E-02
RMM:   5    -0.231206422549E+04    0.20305E-04   -0.63590E-05  3086   0.729E-03    0.181E-02
RMM:   6    -0.231206422462E+04    0.86661E-06   -0.15745E-05  2818   0.427E-03
  21 F= -.23321582E+04 E0= -.23321582E+04  d E =-.108391E-01  mag=     2.0000
       N       E                     dE             d eps       ncg     rms          rms(c)
DAV:   1    -0.231206813733E+04   -0.39118E-02   -0.24741E-01  4464   0.400E-01    0.163E-01
RMM:   2    -0.231207106963E+04   -0.29323E-02   -0.30986E-02  6172   0.797E-02    0.902E-02
RMM:   3    -0.231207130912E+04   -0.23949E-03   -0.30304E-03  4168   0.311E-02    0.581E-02
RMM:   4    -0.231207131525E+04   -0.61256E-05   -0.33908E-04  3168   0.766E-03    0.376E-02
RMM:   5    -0.231207130769E+04    0.75618E-05   -0.47998E-05  2908   0.573E-03
  22 F= -.23321653E+04 E0= -.23321653E+04  d E =-.705273E-02  mag=     2.0000
       N       E                     dE             d eps       ncg     rms          rms(c)
DAV:   1    -0.231205489577E+04    0.16419E-01   -0.22251E+00  4408   0.120E+00    0.485E-01
RMM:   2    -0.231208138665E+04   -0.26491E-01   -0.27960E-01  6091   0.239E-01    0.270E-01
RMM:   3    -0.231208362174E+04   -0.22351E-02   -0.28007E-02  5195   0.943E-02    0.177E-01
RMM:   4    -0.231208363445E+04   -0.12712E-04   -0.31346E-03  4560   0.214E-02    0.112E-01
RMM:   5    -0.231208354675E+04    0.87705E-04   -0.51545E-04  4409   0.151E-02    0.470E-02
RMM:   6    -0.231208357365E+04   -0.26900E-04   -0.65140E-05  3047   0.742E-03    0.412E-02
RMM:   7    -0.231208357118E+04    0.24689E-05   -0.20683E-05  2812   0.393E-03
  23 F= -.23321774E+04 E0= -.23321774E+04  d E =-.192285E-01  mag=     2.0000
       N       E                     dE             d eps       ncg     rms          rms(c)
DAV:   1    -0.231208007876E+04    0.34949E-02   -0.35758E-01  4544   0.484E-01    0.195E-01
RMM:   2    -0.231208434564E+04   -0.42669E-02   -0.44939E-02  5987   0.957E-02    0.111E-01
RMM:   3    -0.231208471691E+04   -0.37127E-03   -0.45983E-03  4543   0.409E-02    0.739E-02
RMM:   4    -0.231208471225E+04    0.46635E-05   -0.49395E-04  3461   0.908E-03    0.462E-02
RMM:   5    -0.231208471005E+04    0.22008E-05   -0.81856E-05  3088   0.712E-03
  24 F= -.23321785E+04 E0= -.23321785E+04  d E =-.203335E-01  mag=     2.0000
       N       E                     dE             d eps       ncg     rms          rms(c)
DAV:   1    -0.231208982106E+04   -0.51088E-02   -0.40877E-01  4432   0.539E-01    0.205E-01
RMM:   2    -0.231209270999E+04   -0.28889E-02   -0.31739E-02  6026   0.966E-02    0.106E-01
RMM:   3    -0.231209290284E+04   -0.19285E-03   -0.29840E-03  4800   0.361E-02    0.685E-02
RMM:   4    -0.231209290222E+04    0.62771E-06   -0.38401E-04  3761   0.982E-03    0.455E-02
RMM:   5    -0.231209288997E+04    0.12244E-04   -0.58303E-05  2995   0.708E-03    0.266E-02
RMM:   6    -0.231209289293E+04   -0.29583E-05   -0.22701E-05  2826   0.440E-03
  25 F= -.23321867E+04 E0= -.23321867E+04  d E =-.819127E-02  mag=     2.0000
       N       E                     dE             d eps       ncg     rms          rms(c)
DAV:   1    -0.231207619572E+04    0.16694E-01   -0.36807E+00  4408   0.162E+00    0.602E-01
RMM:   2    -0.231210237510E+04   -0.26179E-01   -0.28532E-01  5910   0.287E-01    0.308E-01
RMM:   3    -0.231210413653E+04   -0.17614E-02   -0.27822E-02  5145   0.105E-01    0.204E-01
RMM:   4    -0.231210406124E+04    0.75298E-04   -0.36409E-03  4726   0.286E-02    0.120E-01
RMM:   5    -0.231210393180E+04    0.12944E-03   -0.64795E-04  4674   0.201E-02    0.516E-02
RMM:   6    -0.231210395545E+04   -0.23648E-04   -0.86497E-05  3454   0.808E-03    0.455E-02
RMM:   7    -0.231210395388E+04    0.15649E-05   -0.26968E-05  2815   0.486E-03
  26 F= -.23321978E+04 E0= -.23321978E+04  d E =-.192805E-01  mag=     2.0000
       N       E                     dE             d eps       ncg     rms          rms(c)
DAV:   1    -0.231211315053E+04   -0.91951E-02   -0.73978E-01  4432   0.694E-01    0.248E-01
RMM:   2    -0.231211515295E+04   -0.20024E-02   -0.24661E-02  5494   0.108E-01    0.130E-01
RMM:   3    -0.231211512030E+04    0.32646E-04   -0.19488E-03  4730   0.402E-02    0.809E-02
RMM:   4    -0.231211508617E+04    0.34129E-04   -0.50464E-04  4350   0.147E-02    0.389E-02
RMM:   5    -0.231211508778E+04   -0.16084E-05   -0.51880E-05  3035   0.907E-03
  27 F= -.23322090E+04 E0= -.23322090E+04  d E =-.111557E-01  mag=     2.0000
       N       E                     dE             d eps       ncg     rms          rms(c)
DAV:   1    -0.231211588318E+04   -0.79701E-03   -0.32645E+00  4376   0.146E+00    0.523E-01
RMM:   2    -0.231212474294E+04   -0.88598E-02   -0.10948E-01  5477   0.227E-01    0.274E-01
RMM:   3    -0.231212443084E+04    0.31210E-03   -0.76822E-03  4877   0.775E-02    0.165E-01
RMM:   4    -0.231212426717E+04    0.16367E-03   -0.22597E-03  4666   0.307E-02    0.808E-02
RMM:   5    -0.231212424951E+04    0.17666E-04   -0.22076E-04  4241   0.178E-02    0.520E-02
RMM:   6    -0.231212423007E+04    0.19441E-04   -0.81018E-05  3329   0.572E-03    0.339E-02
RMM:   7    -0.231212423819E+04   -0.81190E-05   -0.20953E-05  2819   0.462E-03
  28 F= -.23322182E+04 E0= -.23322182E+04  d E =-.203527E-01  mag=     2.0000
       N       E                     dE             d eps       ncg     rms          rms(c)
DAV:   1    -0.231212731086E+04   -0.30808E-02   -0.13513E+00  4400   0.941E-01    0.340E-01
RMM:   2    -0.231213356177E+04   -0.62509E-02   -0.67699E-02  5746   0.159E-01    0.182E-01
RMM:   3    -0.231213373740E+04   -0.17563E-03   -0.64388E-03  4873   0.577E-02    0.116E-01
RMM:   4    -0.231213366840E+04    0.69002E-04   -0.12545E-03  4685   0.197E-02    0.567E-02
RMM:   5    -0.231213365355E+04    0.14845E-04   -0.14546E-04  3479   0.122E-02    0.309E-02
RMM:   6    -0.231213364567E+04    0.78763E-05   -0.33483E-05  2872   0.399E-03
  29 F= -.23322278E+04 E0= -.23322278E+04  d E =-.967546E-02  mag=     2.0000
       N       E                     dE             d eps       ncg     rms          rms(c)
DAV:   1    -0.231213287036E+04    0.78319E-03   -0.45476E-01  4480   0.547E-01    0.199E-01
RMM:   2    -0.231213499754E+04   -0.21272E-02   -0.22961E-02  5803   0.928E-02    0.110E-01
RMM:   3    -0.231213504781E+04   -0.50271E-04   -0.21533E-03  4625   0.339E-02    0.704E-02
RMM:   4    -0.231213502366E+04    0.24152E-04   -0.42152E-04  4275   0.117E-02    0.383E-02
RMM:   5    -0.231213502264E+04    0.10180E-05   -0.47038E-05  2892   0.743E-03
  30 F= -.23322294E+04 E0= -.23322294E+04  d E =-.112101E-01  mag=     2.0000
       N       E                     dE             d eps       ncg     rms          rms(c)
DAV:   1    -0.231213089248E+04    0.41312E-02   -0.13565E+00  4388   0.972E-01    0.377E-01
RMM:   2    -0.231214270163E+04   -0.11809E-01   -0.12554E-01  5817   0.166E-01    0.225E-01
RMM:   3    -0.231214343917E+04   -0.73754E-03   -0.11661E-02  4890   0.679E-02    0.154E-01
RMM:   4    -0.231214334325E+04    0.95922E-04   -0.17669E-03  4516   0.195E-02    0.860E-02
RMM:   5    -0.231214335610E+04   -0.12856E-04   -0.26083E-04  3979   0.121E-02    0.602E-02
RMM:   6    -0.231214334290E+04    0.13200E-04   -0.56053E-05  2868   0.523E-03    0.442E-02
RMM:   7    -0.231214332548E+04    0.17420E-04   -0.55183E-05  2869   0.404E-03    0.332E-02
RMM:   8    -0.231214333896E+04   -0.13474E-04   -0.13107E-05  2812   0.307E-03    0.318E-02
RMM:   9    -0.231214333993E+04   -0.97304E-06   -0.72483E-06  2706   0.208E-03
  31 F= -.23322378E+04 E0= -.23322378E+04  d E =-.841229E-02  mag=     2.0000
       N       E                     dE             d eps       ncg     rms          rms(c)
DAV:   1    -0.231214119047E+04    0.21485E-02   -0.34858E-01  4448   0.493E-01    0.192E-01
RMM:   2    -0.231214422687E+04   -0.30364E-02   -0.32259E-02  5781   0.837E-02    0.117E-01
RMM:   3    -0.231214440206E+04   -0.17520E-03   -0.28623E-03  4345   0.347E-02    0.801E-02
RMM:   4    -0.231214438378E+04    0.18284E-04   -0.46425E-04  3901   0.104E-02    0.463E-02
RMM:   5    -0.231214439464E+04   -0.10862E-04   -0.52848E-05  2944   0.715E-03    0.335E-02
RMM:   6    -0.231214439148E+04    0.31575E-05   -0.19223E-05  2803   0.325E-03
  32 F= -.23322389E+04 E0= -.23322389E+04  d E =-.951476E-02  mag=     2.0000
       N       E                     dE             d eps       ncg     rms          rms(c)
DAV:   1    -0.231213486993E+04    0.95247E-02   -0.11646E+00  4376   0.888E-01    0.388E-01
RMM:   2    -0.231215086760E+04   -0.15998E-01   -0.16789E-01  6022   0.163E-01    0.255E-01
RMM:   3    -0.231215209883E+04   -0.12312E-02   -0.15378E-02  5006   0.627E-02    0.182E-01
RMM:   4    -0.231215202477E+04    0.74058E-04   -0.19648E-03  4443   0.168E-02    0.117E-01
RMM:   5    -0.231215205378E+04   -0.29011E-04   -0.31411E-04  3947   0.116E-02    0.827E-02
RMM:   6    -0.231215205306E+04    0.71697E-06   -0.75116E-05  2872   0.590E-03
  33 F= -.23322467E+04 E0= -.23322467E+04  d E =-.781435E-02  mag=     2.0000
       N       E                     dE             d eps       ncg     rms          rms(c)
DAV:   1    -0.231213913888E+04    0.12915E-01   -0.10922E+00  4388   0.859E-01    0.387E-01
RMM:   2    -0.231215437495E+04   -0.15236E-01   -0.15764E-01  6016   0.159E-01    0.284E-01
RMM:   3    -0.231215556036E+04   -0.11854E-02   -0.14365E-02  4972   0.599E-02    0.223E-01
RMM:   4    -0.231215545221E+04    0.10815E-03   -0.21025E-03  4394   0.171E-02    0.152E-01
RMM:   5    -0.231215556563E+04   -0.11341E-03   -0.42145E-04  3870   0.123E-02    0.117E-01
RMM:   6    -0.231215557494E+04   -0.93187E-05   -0.12591E-04  2937   0.645E-03    0.941E-02
RMM:   7    -0.231215558622E+04   -0.11272E-04   -0.21260E-04  3119   0.683E-03    0.857E-02
RMM:   8    -0.231215567509E+04   -0.88877E-04   -0.99523E-05  2949   0.602E-03    0.848E-02
RMM:   9    -0.231215570347E+04   -0.28373E-04   -0.75575E-05  2871   0.500E-03    0.691E-02
RMM:  10    -0.231215578934E+04   -0.85877E-04   -0.38017E-04  3254   0.914E-03    0.486E-02
RMM:  11    -0.231215581849E+04   -0.29148E-04   -0.27527E-04  3039   0.815E-03    0.336E-02
RMM:  12    -0.231215583950E+04   -0.21010E-04   -0.29724E-04  3077   0.725E-03    0.155E-02
RMM:  13    -0.231215583593E+04    0.35697E-05   -0.22191E-05  2658   0.379E-03
  34 F= -.23322506E+04 E0= -.23322506E+04  d E =-.117512E-01  mag=     2.0000
       N       E                     dE             d eps       ncg     rms          rms(c)
DAV:   1    -0.231208799880E+04    0.67841E-01   -0.43725E+00  4376   0.172E+00    0.761E-01
RMM:   2    -0.231214736241E+04   -0.59364E-01   -0.61633E-01  5998   0.318E-01    0.536E-01
RMM:   3    -0.231215262351E+04   -0.52611E-02   -0.62671E-02  5185   0.125E-01    0.399E-01
RMM:   4    -0.231215237036E+04    0.25315E-03   -0.84402E-03  5066   0.334E-02    0.263E-01
RMM:   5    -0.231215237836E+04   -0.79951E-05   -0.13606E-03  4637   0.204E-02    0.171E-01
RMM:   6    -0.231215236734E+04    0.11014E-04   -0.37077E-04  3599   0.113E-02    0.127E-01
RMM:   7    -0.231215240070E+04   -0.33359E-04   -0.43913E-04  3631   0.105E-02    0.126E-01
RMM:   8    -0.231215254017E+04   -0.13947E-03   -0.17123E-04  3093   0.782E-03    0.117E-01
RMM:   9    -0.231215255559E+04   -0.15426E-04   -0.93933E-05  2958   0.581E-03    0.937E-02
RMM:  10    -0.231215264758E+04   -0.91986E-04   -0.34307E-04  3331   0.856E-03    0.699E-02
RMM:  11    -0.231215267352E+04   -0.25939E-04   -0.12485E-04  2964   0.656E-03    0.601E-02
RMM:  12    -0.231215272432E+04   -0.50802E-04   -0.76264E-04  3658   0.115E-02    0.256E-02
RMM:  13    -0.231215272273E+04    0.15888E-05   -0.96962E-05  2880   0.658E-03
  35 F= -.23322479E+04 E0= -.23322479E+04  d E =-.896257E-02  mag=     2.0000
       N       E                     dE             d eps       ncg     rms          rms(c)
DAV:   1    -0.231212380040E+04    0.28924E-01   -0.22299E+00  4376   0.123E+00    0.526E-01
RMM:   2    -0.231215372151E+04   -0.29921E-01   -0.31465E-01  5993   0.230E-01    0.315E-01
RMM:   3    -0.231215623317E+04   -0.25117E-02   -0.30423E-02  5158   0.854E-02    0.227E-01
RMM:   4    -0.231215623204E+04    0.11272E-05   -0.34159E-03  4643   0.215E-02    0.177E-01
RMM:   5    -0.231215616555E+04    0.66490E-04   -0.10035E-03  4418   0.171E-02    0.119E-01
RMM:   6    -0.231215622048E+04   -0.54925E-04   -0.21174E-04  3226   0.102E-02    0.817E-02
RMM:   7    -0.231215622771E+04   -0.72358E-05   -0.12579E-04  2972   0.609E-03    0.498E-02
RMM:   8    -0.231215627589E+04   -0.48178E-04   -0.74253E-05  2934   0.536E-03    0.574E-02
RMM:   9    -0.231215629596E+04   -0.20074E-04   -0.32099E-05  2828   0.410E-03    0.534E-02
RMM:  10    -0.231215631754E+04   -0.21578E-04   -0.14443E-04  3033   0.561E-03    0.261E-02
RMM:  11    -0.231215633576E+04   -0.18220E-04   -0.88899E-05  2887   0.517E-03    0.180E-02
RMM:  12    -0.231215634086E+04   -0.50940E-05   -0.29929E-05  2652   0.314E-03
  36 F= -.23322512E+04 E0= -.23322512E+04  d E =-.123467E-01  mag=     2.0000
       N       E                     dE             d eps       ncg     rms          rms(c)
DAV:   1    -0.231214843991E+04    0.78958E-02   -0.79048E-01  4388   0.673E-01    0.325E-01
RMM:   2    -0.231216208672E+04   -0.13647E-01   -0.14169E-01  6037   0.135E-01    0.213E-01
RMM:   3    -0.231216324201E+04   -0.11553E-02   -0.12626E-02  4749   0.578E-02    0.151E-01
RMM:   4    -0.231216322120E+04    0.20804E-04   -0.15369E-03  3882   0.130E-02    0.100E-01
RMM:   5    -0.231216322178E+04   -0.58007E-06   -0.24249E-04  3469   0.887E-03    0.601E-02
RMM:   6    -0.231216321873E+04    0.30544E-05   -0.50936E-05  2834   0.542E-03
  37 F= -.23322581E+04 E0= -.23322581E+04  d E =-.688728E-02  mag=     2.0000
       N       E                     dE             d eps       ncg     rms          rms(c)
DAV:   1    -0.231204144192E+04    0.12178E+00   -0.71055E+00  4376   0.202E+00    0.101E+00
RMM:   2    -0.231216460818E+04   -0.12317E+00   -0.12512E+00  6223   0.411E-01    0.761E-01
RMM:   3    -0.231217678262E+04   -0.12174E-01   -0.13380E-01  5321   0.154E-01    0.562E-01
RMM:   4    -0.231217642375E+04    0.35887E-03   -0.17074E-02  5217   0.415E-02    0.366E-01
RMM:   5    -0.231217628122E+04    0.14253E-03   -0.25860E-03  4906   0.229E-02    0.226E-01
RMM:   6    -0.231217624408E+04    0.37135E-04   -0.73162E-04  3834   0.145E-02    0.164E-01
RMM:   7    -0.231217618564E+04    0.58440E-04   -0.81039E-04  3851   0.128E-02    0.128E-01
RMM:   8    -0.231217639451E+04   -0.20887E-03   -0.27492E-04  3259   0.939E-03    0.118E-01
RMM:   9    -0.231217640397E+04   -0.94583E-05   -0.14902E-04  3043   0.680E-03    0.860E-02
RMM:  10    -0.231217646046E+04   -0.56492E-04   -0.23907E-04  3297   0.722E-03    0.648E-02
RMM:  11    -0.231217647589E+04   -0.15435E-04   -0.63934E-05  2861   0.514E-03    0.567E-02
RMM:  12    -0.231217651930E+04   -0.43406E-04   -0.56089E-04  3630   0.102E-02    0.283E-02
RMM:  13    -0.231217651693E+04    0.23715E-05   -0.90934E-05  2917   0.651E-03
  38 F= -.23322715E+04 E0= -.23322715E+04  d E =-.202300E-01  mag=     2.0000
       N       E                     dE             d eps       ncg     rms          rms(c)
DAV:   1    -0.231160463744E+04    0.57188E+00   -0.28385E+01  4376   0.406E+00    0.201E+00
RMM:   2    -0.231211471441E+04   -0.51008E+00   -0.50211E+00  6342   0.867E-01    0.142E+00
RMM:   3    -0.231216254351E+04   -0.47829E-01   -0.52989E-01  5583   0.275E-01    0.956E-01
RMM:   4    -0.231216345666E+04   -0.91315E-03   -0.64776E-02  5552   0.771E-02    0.609E-01
RMM:   5    -0.231216277575E+04    0.68091E-03   -0.88100E-03  5169   0.396E-02    0.391E-01
RMM:   6    -0.231216207636E+04    0.69939E-03   -0.31282E-03  4531   0.281E-02    0.243E-01
RMM:   7    -0.231216172799E+04    0.34837E-03   -0.19711E-03  4603   0.227E-02    0.132E-01
RMM:   8    -0.231216196364E+04   -0.23564E-03   -0.38424E-04  4119   0.138E-02    0.107E-01
RMM:   9    -0.231216198444E+04   -0.20802E-04   -0.15206E-04  3166   0.732E-03    0.786E-02
RMM:  10    -0.231216200154E+04   -0.17100E-04   -0.16628E-04  3205   0.608E-03    0.553E-02
RMM:  11    -0.231216201440E+04   -0.12860E-04   -0.48194E-05  2856   0.456E-03    0.466E-02
RMM:  12    -0.231216202396E+04   -0.95641E-05   -0.70028E-05  2891   0.422E-03
  39 F= -.23322571E+04 E0= -.23322571E+04  d E =-.589295E-02  mag=     2.0000
       N       E                     dE             d eps       ncg     rms          rms(c)
DAV:   1    -0.231186994472E+04    0.29207E+00   -0.16718E+01  4376   0.312E+00    0.142E+00
RMM:   2    -0.231214890661E+04   -0.27896E+00   -0.29352E+00  6313   0.650E-01    0.832E-01
RMM:   3    -0.231217932104E+04   -0.30414E-01   -0.32311E-01  5649   0.218E-01    0.610E-01
RMM:   4    -0.231217946122E+04   -0.14018E-03   -0.32046E-02  5683   0.541E-02    0.461E-01
RMM:   5    -0.231217877887E+04    0.68236E-03   -0.36067E-03  4557   0.261E-02    0.360E-01
RMM:   6    -0.231217816528E+04    0.61359E-03   -0.31367E-03  4473   0.285E-02    0.217E-01
RMM:   7    -0.231217832395E+04   -0.15868E-03   -0.12272E-03  4464   0.188E-02    0.128E-01
RMM:   8    -0.231217828118E+04    0.42776E-04   -0.29253E-04  3630   0.987E-03    0.762E-02
RMM:   9    -0.231217831549E+04   -0.34307E-04   -0.89160E-05  2947   0.629E-03    0.602E-02
RMM:  10    -0.231217834036E+04   -0.24871E-04   -0.10244E-04  2981   0.584E-03    0.404E-02
RMM:  11    -0.231217836451E+04   -0.24154E-04   -0.50946E-05  2859   0.453E-03    0.384E-02
RMM:  12    -0.231217836799E+04   -0.34810E-05   -0.24185E-05  2822   0.335E-03
  40 F= -.23322733E+04 E0= -.23322733E+04  d E =-.221097E-01  mag=     2.0000
       N       E                     dE             d eps       ncg     rms          rms(c)
DAV:   1    -0.231215167415E+04    0.26690E-01   -0.19719E+00  4388   0.105E+00    0.532E-01
RMM:   2    -0.231218545345E+04   -0.33779E-01   -0.34911E-01  6092   0.217E-01    0.346E-01
RMM:   3    -0.231218891697E+04   -0.34635E-02   -0.38121E-02  5170   0.929E-02    0.244E-01
RMM:   4    -0.231218889416E+04    0.22808E-04   -0.45117E-03  4799   0.225E-02    0.158E-01
RMM:   5    -0.231218881558E+04    0.78578E-04   -0.55687E-04  4280   0.129E-02    0.925E-02
RMM:   6    -0.231218879388E+04    0.21703E-04   -0.13721E-04  3075   0.773E-03    0.581E-02
RMM:   7    -0.231218879029E+04    0.35936E-05   -0.88361E-05  2994   0.598E-03
  41 F= -.23322838E+04 E0= -.23322838E+04  d E =-.104457E-01  mag=     2.0000
       N       E                     dE             d eps       ncg     rms          rms(c)
DAV:   1    -0.231200741642E+04    0.18138E+00   -0.98587E+00  4376   0.234E+00    0.120E+00
RMM:   2    -0.231217757109E+04   -0.17015E+00   -0.17477E+00  6195   0.491E-01    0.808E-01
RMM:   3    -0.231219528823E+04   -0.17717E-01   -0.20194E-01  5366   0.199E-01    0.556E-01
RMM:   4    -0.231219517635E+04    0.11188E-03   -0.23830E-02  5409   0.509E-02    0.350E-01
RMM:   5    -0.231219488513E+04    0.29122E-03   -0.30200E-03  4891   0.259E-02    0.209E-01
RMM:   6    -0.231219472999E+04    0.15513E-03   -0.85903E-04  4235   0.163E-02    0.128E-01
RMM:   7    -0.231219468139E+04    0.48596E-04   -0.50915E-04  4027   0.126E-02    0.829E-02
RMM:   8    -0.231219475848E+04   -0.77087E-04   -0.13243E-04  3163   0.840E-03    0.696E-02
RMM:   9    -0.231219475896E+04   -0.47765E-06   -0.66926E-05  2933   0.545E-03
  42 F= -.23322898E+04 E0= -.23322898E+04  d E =-.164671E-01  mag=     2.0000
       N       E                     dE             d eps       ncg     rms          rms(c)
DAV:   1    -0.231218235677E+04    0.12402E-01   -0.72252E-01  4432   0.630E-01    0.309E-01
RMM:   2    -0.231219451052E+04   -0.12154E-01   -0.12615E-01  6097   0.130E-01    0.175E-01
RMM:   3    -0.231219567726E+04   -0.11667E-02   -0.12882E-02  5044   0.550E-02    0.110E-01
RMM:   4    -0.231219567837E+04   -0.11080E-05   -0.13588E-03  3998   0.128E-02    0.716E-02
RMM:   5    -0.231219563881E+04    0.39562E-04   -0.21947E-04  3656   0.904E-03    0.299E-02
RMM:   6    -0.231219564219E+04   -0.33801E-05   -0.27312E-05  2831   0.553E-03
  43 F= -.23322907E+04 E0= -.23322907E+04  d E =-.173360E-01  mag=     2.0000
       N       E                     dE             d eps       ncg     rms          rms(c)
DAV:   1    -0.231215270662E+04    0.42932E-01   -0.32108E+00  4388   0.138E+00    0.666E-01
RMM:   2    -0.231220302530E+04   -0.50319E-01   -0.52137E-01  6061   0.276E-01    0.383E-01
RMM:   3    -0.231220819626E+04   -0.51710E-02   -0.59166E-02  5228   0.115E-01    0.260E-01
RMM:   4    -0.231220818335E+04    0.12919E-04   -0.64140E-03  5029   0.275E-02    0.160E-01
RMM:   5    -0.231220802853E+04    0.15482E-03   -0.77553E-04  4442   0.155E-02    0.832E-02
RMM:   6    -0.231220800427E+04    0.24258E-04   -0.17646E-04  3571   0.100E-02    0.492E-02
RMM:   7    -0.231220799223E+04    0.12037E-04   -0.81701E-05  3016   0.628E-03    0.284E-02
RMM:   8    -0.231220800314E+04   -0.10902E-04   -0.18745E-05  2819   0.432E-03    0.244E-02
RMM:   9    -0.231220800329E+04   -0.14922E-06   -0.11386E-05  2811   0.286E-03
  44 F= -.23323032E+04 E0= -.23323032E+04  d E =-.124690E-01  mag=     2.0000
       N       E                     dE             d eps       ncg     rms          rms(c)
DAV:   1    -0.231217229970E+04    0.35703E-01   -0.22570E+00  4400   0.116E+00    0.556E-01
RMM:   2    -0.231220769466E+04   -0.35395E-01   -0.36725E-01  6003   0.232E-01    0.314E-01
RMM:   3    -0.231221143803E+04   -0.37434E-02   -0.42534E-02  5190   0.102E-01    0.210E-01
RMM:   4    -0.231221147221E+04   -0.34183E-04   -0.46011E-03  4826   0.231E-02    0.130E-01
RMM:   5    -0.231221135559E+04    0.11663E-03   -0.52912E-04  4328   0.136E-02    0.633E-02
RMM:   6    -0.231221134364E+04    0.11946E-04   -0.10930E-04  3259   0.850E-03    0.364E-02
RMM:   7    -0.231221133781E+04    0.58291E-05   -0.43021E-05  2862   0.540E-03
  45 F= -.23323066E+04 E0= -.23323066E+04  d E =-.158882E-01  mag=     2.0000
       N       E                     dE             d eps       ncg     rms          rms(c)
DAV:   1    -0.231219172957E+04    0.19614E-01   -0.20384E+00  4388   0.114E+00    0.514E-01
RMM:   2    -0.231221900336E+04   -0.27274E-01   -0.28685E-01  5986   0.221E-01    0.282E-01
RMM:   3    -0.231222182325E+04   -0.28199E-02   -0.33588E-02  5267   0.911E-02    0.194E-01
RMM:   4    -0.231222177803E+04    0.45225E-04   -0.37742E-03  4822   0.221E-02    0.117E-01
RMM:   5    -0.231222164939E+04    0.12863E-03   -0.53341E-04  4444   0.144E-02    0.486E-02
RMM:   6    -0.231222164643E+04    0.29668E-05   -0.87922E-05  3371   0.880E-03
  46 F= -.23323170E+04 E0= -.23323170E+04  d E =-.104322E-01  mag=     2.0000
       N       E                     dE             d eps       ncg     rms          rms(c)
DAV:   1    -0.231220165056E+04    0.19999E-01   -0.15144E+00  4400   0.981E-01    0.443E-01
RMM:   2    -0.231222190867E+04   -0.20258E-01   -0.21328E-01  6092   0.191E-01    0.243E-01
RMM:   3    -0.231222400628E+04   -0.20976E-02   -0.24864E-02  5303   0.756E-02    0.168E-01
RMM:   4    -0.231222396804E+04    0.38239E-04   -0.27932E-03  4628   0.191E-02    0.102E-01
RMM:   5    -0.231222386130E+04    0.10674E-03   -0.41837E-04  4290   0.126E-02    0.395E-02
RMM:   6    -0.231222385750E+04    0.38030E-05   -0.67897E-05  3163   0.853E-03
  47 F= -.23323193E+04 E0= -.23323193E+04  d E =-.127463E-01  mag=     2.0000
       N       E                     dE             d eps       ncg     rms          rms(c)
DAV:   1    -0.231220150762E+04    0.22354E-01   -0.24617E+00  4384   0.135E+00    0.565E-01
RMM:   2    -0.231222847842E+04   -0.26971E-01   -0.28836E-01  6046   0.252E-01    0.308E-01
RMM:   3    -0.231223078933E+04   -0.23109E-02   -0.31551E-02  5285   0.921E-02    0.212E-01
RMM:   4    -0.231223071141E+04    0.77918E-04   -0.41104E-03  4906   0.254E-02    0.125E-01
RMM:   5    -0.231223055808E+04    0.15333E-03   -0.65069E-04  4539   0.165E-02    0.501E-02
RMM:   6    -0.231223055768E+04    0.39923E-06   -0.91757E-05  3481   0.898E-03
  48 F= -.23323263E+04 E0= -.23323263E+04  d E =-.702707E-02  mag=     2.0000
       N       E                     dE             d eps       ncg     rms          rms(c)
DAV:   1    -0.231223038423E+04    0.17385E-03   -0.12890E-02  5328   0.984E-02    0.448E-02
RMM:   2    -0.231223053311E+04   -0.14888E-03   -0.15537E-03  5729   0.196E-02    0.286E-02
RMM:   3    -0.231223054630E+04   -0.13185E-04   -0.15619E-04  2866   0.794E-03    0.213E-02
RMM:   4    -0.231223054565E+04    0.64752E-06   -0.26560E-05  2825   0.259E-03
  49 F= -.23323264E+04 E0= -.23323264E+04  d E =-.703855E-02  mag=     2.0000
       N       E                     dE             d eps       ncg     rms          rms(c)
DAV:   1    -0.231223008141E+04    0.46489E-03   -0.79919E-01  4400   0.829E-01    0.295E-01
RMM:   2    -0.231223557035E+04   -0.54889E-02   -0.62357E-02  5888   0.151E-01    0.154E-01
RMM:   3    -0.231223582922E+04   -0.25887E-03   -0.53637E-03  4998   0.462E-02    0.103E-01
RMM:   4    -0.231223578804E+04    0.41179E-04   -0.89886E-04  4333   0.164E-02    0.573E-02
RMM:   5    -0.231223576236E+04    0.25683E-04   -0.17200E-04  3905   0.105E-02    0.218E-02
RMM:   6    -0.231223576127E+04    0.10902E-05   -0.21995E-05  2850   0.561E-03
  50 F= -.23323317E+04 E0= -.23323317E+04  d E =-.537845E-02  mag=     2.0000
       N       E                     dE             d eps       ncg     rms          rms(c)
DAV:   1    -0.231223488002E+04    0.88234E-03   -0.20387E-01  4432   0.419E-01    0.150E-01
RMM:   2    -0.231223629409E+04   -0.14141E-02   -0.16022E-02  5993   0.772E-02    0.781E-02
RMM:   3    -0.231223635406E+04   -0.59968E-04   -0.12814E-03  4220   0.233E-02    0.517E-02
RMM:   4    -0.231223634267E+04    0.11387E-04   -0.22224E-04  3407   0.892E-03    0.282E-02
RMM:   5    -0.231223633718E+04    0.54913E-05   -0.43779E-05  3054   0.593E-03
  51 F= -.23323324E+04 E0= -.23323324E+04  d E =-.603786E-02  mag=     2.0000
       N       E                     dE             d eps       ncg     rms          rms(c)
DAV:   1    -0.231223755454E+04   -0.12119E-02   -0.41072E-01  4400   0.615E-01    0.201E-01
RMM:   2    -0.231224029219E+04   -0.27376E-02   -0.29507E-02  5906   0.106E-01    0.109E-01
RMM:   3    -0.231224041889E+04   -0.12670E-03   -0.27164E-03  4647   0.381E-02    0.788E-02
RMM:   4    -0.231224040493E+04    0.13951E-04   -0.45648E-04  4024   0.116E-02    0.481E-02
RMM:   5    -0.231224038911E+04    0.15824E-04   -0.84443E-05  3147   0.755E-03    0.232E-02
RMM:   6    -0.231224038895E+04    0.15597E-06   -0.20705E-05  2825   0.493E-03
  52 F= -.23323367E+04 E0= -.23323367E+04  d E =-.427132E-02  mag=     2.0000
       N       E                     dE             d eps       ncg     rms          rms(c)
DAV:   1    -0.231223248496E+04    0.79041E-02   -0.15461E+00  4376   0.119E+00    0.389E-01
RMM:   2    -0.231224280562E+04   -0.10321E-01   -0.11123E-01  5869   0.205E-01    0.213E-01
RMM:   3    -0.231224326465E+04   -0.45903E-03   -0.10256E-02  4947   0.677E-02    0.154E-01
RMM:   4    -0.231224321109E+04    0.53564E-04   -0.17050E-03  4866   0.210E-02    0.943E-02
RMM:   5    -0.231224314644E+04    0.64651E-04   -0.29598E-04  4143   0.126E-02    0.470E-02
RMM:   6    -0.231224314390E+04    0.25396E-05   -0.74084E-05  3150   0.700E-03
  53 F= -.23323399E+04 E0= -.23323399E+04  d E =-.745686E-02  mag=     2.0000
       N       E                     dE             d eps       ncg     rms          rms(c)
DAV:   1    -0.231224235669E+04    0.78975E-03   -0.77360E-01  4388   0.820E-01    0.271E-01
RMM:   2    -0.231224782161E+04   -0.54649E-02   -0.59495E-02  6051   0.146E-01    0.147E-01
RMM:   3    -0.231224809266E+04   -0.27105E-03   -0.49243E-03  4985   0.454E-02    0.109E-01
RMM:   4    -0.231224807186E+04    0.20799E-04   -0.85241E-04  4290   0.146E-02    0.675E-02
RMM:   5    -0.231224804147E+04    0.30393E-04   -0.15737E-04  3649   0.892E-03    0.345E-02
RMM:   6    -0.231224803604E+04    0.54257E-05   -0.35334E-05  2848   0.622E-03
  54 F= -.23323450E+04 E0= -.23323450E+04  d E =-.517475E-02  mag=     2.0000
       N       E                     dE             d eps       ncg     rms          rms(c)
DAV:   1    -0.231223840571E+04    0.96358E-02   -0.15907E+00  4376   0.118E+00    0.387E-01
RMM:   2    -0.231224979815E+04   -0.11392E-01   -0.12396E-01  5977   0.212E-01    0.208E-01
RMM:   3    -0.231225039982E+04   -0.60167E-03   -0.10997E-02  5050   0.658E-02    0.155E-01
RMM:   4    -0.231225034533E+04    0.54499E-04   -0.17541E-03  4665   0.202E-02    0.954E-02
RMM:   5    -0.231225027427E+04    0.71058E-04   -0.32317E-04  4138   0.127E-02    0.472E-02
RMM:   6    -0.231225026104E+04    0.13230E-04   -0.68644E-05  3130   0.774E-03    0.255E-02
RMM:   7    -0.231225026315E+04   -0.21125E-05   -0.22623E-05  2852   0.483E-03
  55 F= -.23323477E+04 E0= -.23323477E+04  d E =-.781236E-02  mag=     2.0000
       N       E                     dE             d eps       ncg     rms          rms(c)
DAV:   1    -0.231224502383E+04    0.52372E-02   -0.13911E+00  4376   0.109E+00    0.381E-01
RMM:   2    -0.231225511722E+04   -0.10093E-01   -0.10859E-01  5879   0.198E-01    0.207E-01
RMM:   3    -0.231225549826E+04   -0.38104E-03   -0.84871E-03  4968   0.618E-02    0.154E-01
RMM:   4    -0.231225544065E+04    0.57604E-04   -0.18122E-03  4691   0.207E-02    0.914E-02
RMM:   5    -0.231225538695E+04    0.53705E-04   -0.27777E-04  4086   0.123E-02    0.476E-02
RMM:   6    -0.231225538483E+04    0.21222E-05   -0.64450E-05  2932   0.627E-03
  56 F= -.23323533E+04 E0= -.23323533E+04  d E =-.563915E-02  mag=     2.0000
       N       E                     dE             d eps       ncg     rms          rms(c)
DAV:   1    -0.231225049386E+04    0.48931E-02   -0.76353E-01  4416   0.805E-01    0.285E-01
RMM:   2    -0.231225603898E+04   -0.55451E-02   -0.59611E-02  5947   0.146E-01    0.157E-01
RMM:   3    -0.231225622760E+04   -0.18862E-03   -0.43242E-03  4910   0.442E-02    0.118E-01
RMM:   4    -0.231225618937E+04    0.38231E-04   -0.10062E-03  4376   0.156E-02    0.699E-02
RMM:   5    -0.231225615764E+04    0.31730E-04   -0.14778E-04  3534   0.912E-03    0.361E-02
RMM:   6    -0.231225615700E+04    0.64218E-06   -0.36340E-05  2851   0.574E-03
  57 F= -.23323545E+04 E0= -.23323545E+04  d E =-.679487E-02  mag=     2.0000
       N       E                     dE             d eps       ncg     rms          rms(c)
DAV:   1    -0.231225397831E+04    0.21793E-02   -0.98633E-01  4376   0.894E-01    0.318E-01
RMM:   2    -0.231226017446E+04   -0.61961E-02   -0.68092E-02  6019   0.165E-01    0.176E-01
RMM:   3    -0.231226035558E+04   -0.18112E-03   -0.49735E-03  4972   0.494E-02    0.130E-01
RMM:   4    -0.231226029477E+04    0.60812E-04   -0.12506E-03  4611   0.185E-02    0.754E-02
RMM:   5    -0.231226025891E+04    0.35866E-04   -0.18925E-04  3906   0.106E-02    0.400E-02
RMM:   6    -0.231226025596E+04    0.29479E-05   -0.45594E-05  2863   0.558E-03
  58 F= -.23323589E+04 E0= -.23323589E+04  d E =-.446853E-02  mag=     2.0000
       N       E                     dE             d eps       ncg     rms          rms(c)
DAV:   1    -0.231225665999E+04    0.35989E-02   -0.63739E-01  4400   0.717E-01    0.256E-01
RMM:   2    -0.231226063903E+04   -0.39790E-02   -0.43821E-02  6015   0.132E-01    0.143E-01
RMM:   3    -0.231226075729E+04   -0.11826E-03   -0.32460E-03  4841   0.392E-02    0.106E-01
RMM:   4    -0.231226071201E+04    0.45283E-04   -0.81044E-04  4360   0.152E-02    0.610E-02
RMM:   5    -0.231226068562E+04    0.26388E-04   -0.12678E-04  3476   0.889E-03    0.316E-02
RMM:   6    -0.231226068332E+04    0.22990E-05   -0.31362E-05  2836   0.532E-03
  59 F= -.23323597E+04 E0= -.23323597E+04  d E =-.519430E-02  mag=     2.0000
       N       E                     dE             d eps       ncg     rms          rms(c)
DAV:   1    -0.231226039879E+04    0.28683E-03   -0.56792E-01  4400   0.668E-01    0.223E-01
RMM:   2    -0.231226399623E+04   -0.35974E-02   -0.39259E-02  6068   0.118E-01    0.126E-01
RMM:   3    -0.231226420192E+04   -0.20569E-03   -0.35391E-03  4839   0.372E-02    0.916E-02
RMM:   4    -0.231226418736E+04    0.14567E-04   -0.59555E-04  4020   0.122E-02    0.564E-02
RMM:   5    -0.231226417209E+04    0.15265E-04   -0.94133E-05  3270   0.762E-03    0.289E-02
RMM:   6    -0.231226417020E+04    0.18884E-05   -0.21519E-05  2823   0.519E-03
  60 F= -.23323634E+04 E0= -.23323634E+04  d E =-.377907E-02  mag=     2.0000
       N       E                     dE             d eps       ncg     rms          rms(c)
DAV:   1    -0.231223430126E+04    0.29871E-01   -0.51089E+00  4376   0.201E+00    0.665E-01
RMM:   2    -0.231226734136E+04   -0.33040E-01   -0.36011E-01  6028   0.361E-01    0.374E-01
RMM:   3    -0.231226888068E+04   -0.15393E-02   -0.30022E-02  5112   0.102E-01    0.272E-01
RMM:   4    -0.231226874276E+04    0.13792E-03   -0.56253E-03  4963   0.345E-02    0.163E-01
RMM:   5    -0.231226858825E+04    0.15451E-03   -0.82951E-04  4577   0.200E-02    0.821E-02
RMM:   6    -0.231226857109E+04    0.17161E-04   -0.15671E-04  3656   0.102E-02    0.468E-02
RMM:   7    -0.231226858147E+04   -0.10378E-04   -0.50686E-05  2911   0.603E-03    0.285E-02
RMM:   8    -0.231226857699E+04    0.44787E-05   -0.15511E-05  2812   0.337E-03
  61 F= -.23323687E+04 E0= -.23323687E+04  d E =-.906861E-02  mag=     2.0000
       N       E                     dE             d eps       ncg     rms          rms(c)
DAV:   1    -0.231226573736E+04    0.28441E-02   -0.13317E+00  4376   0.991E-01    0.355E-01
RMM:   2    -0.231227421912E+04   -0.84818E-02   -0.92801E-02  5815   0.174E-01    0.200E-01
RMM:   3    -0.231227468596E+04   -0.46684E-03   -0.93791E-03  4908   0.614E-02    0.141E-01
RMM:   4    -0.231227464252E+04    0.43443E-04   -0.15983E-03  4816   0.199E-02    0.826E-02
RMM:   5    -0.231227459457E+04    0.47944E-04   -0.26355E-04  4056   0.124E-02    0.371E-02
RMM:   6    -0.231227458965E+04    0.49202E-05   -0.51079E-05  2913   0.626E-03
  62 F= -.23323752E+04 E0= -.23323752E+04  d E =-.642894E-02  mag=     2.0000
       N       E                     dE             d eps       ncg     rms          rms(c)
DAV:   1    -0.231227128209E+04    0.33125E-02   -0.61911E-01  4416   0.674E-01    0.244E-01
RMM:   2    -0.231227522489E+04   -0.39428E-02   -0.43072E-02  5847   0.119E-01    0.139E-01
RMM:   3    -0.231227541385E+04   -0.18896E-03   -0.41208E-03  4851   0.412E-02    0.954E-02
RMM:   4    -0.231227539596E+04    0.17887E-04   -0.74782E-04  4478   0.143E-02    0.559E-02
RMM:   5    -0.231227537487E+04    0.21092E-04   -0.10498E-04  3254   0.841E-03    0.278E-02
RMM:   6    -0.231227537120E+04    0.36684E-05   -0.27905E-05  2836   0.504E-03
  63 F= -.23323762E+04 E0= -.23323762E+04  d E =-.749384E-02  mag=     2.0000
       N       E                     dE             d eps       ncg     rms          rms(c)
DAV:   1    -0.231227195741E+04    0.34175E-02   -0.13919E+00  4376   0.941E-01    0.323E-01
RMM:   2    -0.231228019363E+04   -0.82362E-02   -0.89449E-02  5995   0.163E-01    0.186E-01
RMM:   3    -0.231228068733E+04   -0.49370E-03   -0.81244E-03  5050   0.518E-02    0.126E-01
RMM:   4    -0.231228065954E+04    0.27793E-04   -0.12714E-03  4535   0.174E-02    0.720E-02
RMM:   5    -0.231228063353E+04    0.26004E-04   -0.22529E-04  3710   0.105E-02    0.329E-02
RMM:   6    -0.231228062651E+04    0.70227E-05   -0.37416E-05  2867   0.596E-03
  64 F= -.23323817E+04 E0= -.23323817E+04  d E =-.545689E-02  mag=     2.0000
       N       E                     dE             d eps       ncg     rms          rms(c)
DAV:   1    -0.231227143314E+04    0.92004E-02   -0.17574E+00  4376   0.106E+00    0.363E-01
RMM:   2    -0.231228180540E+04   -0.10372E-01   -0.11268E-01  5993   0.185E-01    0.209E-01
RMM:   3    -0.231228245969E+04   -0.65429E-03   -0.10676E-02  5041   0.594E-02    0.143E-01
RMM:   4    -0.231228242007E+04    0.39615E-04   -0.16146E-03  4657   0.195E-02    0.820E-02
RMM:   5    -0.231228238275E+04    0.37324E-04   -0.29278E-04  3958   0.117E-02    0.370E-02
RMM:   6    -0.231228237446E+04    0.82891E-05   -0.46336E-05  2894   0.658E-03
  65 F= -.23323836E+04 E0= -.23323836E+04  d E =-.743204E-02  mag=     2.0000
       N       E                     dE             d eps       ncg     rms          rms(c)
DAV:   1    -0.231227961497E+04    0.27678E-02   -0.14651E+00  4376   0.947E-01    0.332E-01
RMM:   2    -0.231228789108E+04   -0.82761E-02   -0.89250E-02  5966   0.161E-01    0.197E-01
RMM:   3    -0.231228833037E+04   -0.43929E-03   -0.78374E-03  4990   0.518E-02    0.134E-01
RMM:   4    -0.231228828524E+04    0.45127E-04   -0.13726E-03  4560   0.183E-02    0.751E-02
RMM:   5    -0.231228825840E+04    0.26845E-04   -0.23180E-04  3658   0.104E-02    0.362E-02
RMM:   6    -0.231228825541E+04    0.29903E-05   -0.37793E-05  2864   0.565E-03
  66 F= -.23323898E+04 E0= -.23323898E+04  d E =-.610147E-02  mag=     2.0000
       N       E                     dE             d eps       ncg     rms          rms(c)
DAV:   1    -0.231227895914E+04    0.92993E-02   -0.19602E+00  4376   0.109E+00    0.384E-01
RMM:   2    -0.231228996728E+04   -0.11008E-01   -0.11889E-01  5962   0.187E-01    0.229E-01
RMM:   3    -0.231229059685E+04   -0.62957E-03   -0.10930E-02  5018   0.624E-02    0.158E-01
RMM:   4    -0.231229052774E+04    0.69107E-04   -0.18124E-03  4698   0.210E-02    0.900E-02
RMM:   5    -0.231229048474E+04    0.42998E-04   -0.33611E-04  4036   0.124E-02    0.406E-02
RMM:   6    -0.231229048393E+04    0.81115E-06   -0.51123E-05  2893   0.632E-03
  67 F= -.23323922E+04 E0= -.23323922E+04  d E =-.858616E-02  mag=     2.0000
       N       E                     dE             d eps       ncg     rms          rms(c)
DAV:   1    -0.231228560376E+04    0.48810E-02   -0.14212E+00  4376   0.923E-01    0.358E-01
RMM:   2    -0.231229538535E+04   -0.97816E-02   -0.10640E-01  6001   0.171E-01    0.197E-01
RMM:   3    -0.231229598315E+04   -0.59780E-03   -0.95360E-03  4968   0.553E-02    0.132E-01
RMM:   4    -0.231229595672E+04    0.26432E-04   -0.14919E-03  4626   0.191E-02    0.774E-02
RMM:   5    -0.231229592454E+04    0.32179E-04   -0.24225E-04  3970   0.113E-02    0.362E-02
RMM:   6    -0.231229591719E+04    0.73550E-05   -0.41365E-05  2885   0.643E-03
  68 F= -.23323978E+04 E0= -.23323978E+04  d E =-.552656E-02  mag=     2.0000
       N       E                     dE             d eps       ncg     rms          rms(c)
DAV:   1    -0.231229215766E+04    0.37669E-02   -0.66020E-01  4400   0.629E-01    0.244E-01
RMM:   2    -0.231229671159E+04   -0.45539E-02   -0.49546E-02  6043   0.117E-01    0.134E-01
RMM:   3    -0.231229697486E+04   -0.26327E-03   -0.43441E-03  4898   0.376E-02    0.876E-02
RMM:   4    -0.231229696162E+04    0.13236E-04   -0.67371E-04  4194   0.134E-02    0.501E-02
RMM:   5    -0.231229694878E+04    0.12837E-04   -0.10424E-04  3316   0.794E-03    0.247E-02
RMM:   6    -0.231229694456E+04    0.42249E-05   -0.20435E-05  2827   0.521E-03
  69 F= -.23323989E+04 E0= -.23323989E+04  d E =-.661648E-02  mag=     2.0000
       N       E                     dE             d eps       ncg     rms          rms(c)
DAV:   1    -0.231228659022E+04    0.10359E-01   -0.16022E+00  4376   0.978E-01    0.389E-01
RMM:   2    -0.231230135990E+04   -0.14770E-01   -0.15745E-01  6136   0.189E-01    0.216E-01
RMM:   3    -0.231230265257E+04   -0.12927E-02   -0.16774E-02  5221   0.620E-02    0.149E-01
RMM:   4    -0.231230264131E+04    0.11266E-04   -0.21264E-03  4685   0.182E-02    0.904E-02
RMM:   5    -0.231230258515E+04    0.56161E-04   -0.31748E-04  3957   0.110E-02    0.401E-02
RMM:   6    -0.231230257820E+04    0.69413E-05   -0.53510E-05  2890   0.713E-03
  70 F= -.23324046E+04 E0= -.23324046E+04  d E =-.578344E-02  mag=     2.0000
       N       E                     dE             d eps       ncg     rms          rms(c)
DAV:   1    -0.231222346245E+04    0.79123E-01   -0.79352E+00  4376   0.218E+00    0.865E-01
RMM:   2    -0.231229679807E+04   -0.73336E-01   -0.78444E-01  6163   0.430E-01    0.481E-01
RMM:   3    -0.231230399070E+04   -0.71926E-02   -0.92988E-02  5279   0.133E-01    0.357E-01
RMM:   4    -0.231230369084E+04    0.29986E-03   -0.10368E-02  5321   0.393E-02    0.220E-01
RMM:   5    -0.231230337021E+04    0.32063E-03   -0.18866E-03  4537   0.239E-02    0.951E-02
RMM:   6    -0.231230334411E+04    0.26095E-04   -0.28326E-04  4097   0.151E-02    0.560E-02
RMM:   7    -0.231230334151E+04    0.26052E-05   -0.95691E-05  3098   0.608E-03
  71 F= -.23324057E+04 E0= -.23324057E+04  d E =-.685536E-02  mag=     2.0000
       N       E                     dE             d eps       ncg     rms          rms(c)
DAV:   1    -0.231229134135E+04    0.12003E-01   -0.13647E+00  4376   0.907E-01    0.357E-01
RMM:   2    -0.231230391189E+04   -0.12571E-01   -0.13349E-01  6125   0.171E-01    0.203E-01
RMM:   3    -0.231230498901E+04   -0.10771E-02   -0.14520E-02  5203   0.578E-02    0.128E-01
RMM:   4    -0.231230498767E+04    0.13396E-05   -0.15094E-03  4278   0.157E-02    0.733E-02
RMM:   5    -0.231230495468E+04    0.32991E-04   -0.20547E-04  3767   0.106E-02    0.318E-02
RMM:   6    -0.231230495096E+04    0.37180E-05   -0.35629E-05  2858   0.577E-03
  72 F= -.23324072E+04 E0= -.23324072E+04  d E =-.834083E-02  mag=     2.0000
       N       E                     dE             d eps       ncg     rms          rms(c)
DAV:   1    -0.231229181796E+04    0.13137E-01   -0.14304E+00  4376   0.906E-01    0.373E-01
RMM:   2    -0.231230829147E+04   -0.16474E-01   -0.17382E-01  6131   0.188E-01    0.210E-01
RMM:   3    -0.231230985782E+04   -0.15664E-02   -0.19036E-02  5276   0.639E-02    0.144E-01
RMM:   4    -0.231230985836E+04   -0.54152E-06   -0.21648E-03  4554   0.168E-02    0.894E-02
RMM:   5    -0.231230979577E+04    0.62596E-04   -0.29718E-04  3859   0.101E-02    0.346E-02
RMM:   6    -0.231230979341E+04    0.23563E-05   -0.47115E-05  2891   0.704E-03
  73 F= -.23324124E+04 E0= -.23324124E+04  d E =-.516945E-02  mag=     2.0000
       N       E                     dE             d eps       ncg     rms          rms(c)
DAV:   1    -0.231224302446E+04    0.66771E-01   -0.54761E+00  4376   0.177E+00    0.734E-01
RMM:   2    -0.231230639689E+04   -0.63372E-01   -0.67100E-01  6173   0.373E-01    0.416E-01
RMM:   3    -0.231231294521E+04   -0.65483E-02   -0.79957E-02  5393   0.120E-01    0.306E-01
RMM:   4    -0.231231280964E+04    0.13557E-03   -0.83369E-03  5333   0.316E-02    0.192E-01
RMM:   5    -0.231231257252E+04    0.23712E-03   -0.14485E-03  4538   0.193E-02    0.810E-02
RMM:   6    -0.231231255606E+04    0.16463E-04   -0.20949E-04  3790   0.124E-02    0.449E-02
RMM:   7    -0.231231255377E+04    0.22901E-05   -0.57337E-05  2935   0.529E-03
  74 F= -.23324157E+04 E0= -.23324157E+04  d E =-.853942E-02  mag=     2.0000
       N       E                     dE             d eps       ncg     rms          rms(c)
DAV:   1    -0.231229459996E+04    0.17956E-01   -0.16192E+00  4376   0.957E-01    0.409E-01
RMM:   2    -0.231231494908E+04   -0.20349E-01   -0.21515E-01  6172   0.205E-01    0.227E-01
RMM:   3    -0.231231706145E+04   -0.21124E-02   -0.24976E-02  5334   0.700E-02    0.157E-01
RMM:   4    -0.231231709020E+04   -0.28755E-04   -0.26164E-03  4452   0.176E-02    0.983E-02
RMM:   5    -0.231231703519E+04    0.55016E-04   -0.37963E-04  3892   0.105E-02    0.417E-02
RMM:   6    -0.231231702977E+04    0.54198E-05   -0.57339E-05  2905   0.733E-03
  75 F= -.23324205E+04 E0= -.23324205E+04  d E =-.476285E-02  mag=     2.0000
       N       E                     dE             d eps       ncg     rms          rms(c)
DAV:   1    -0.231211349296E+04    0.20354E+00   -0.14580E+01  4376   0.288E+00    0.122E+00
RMM:   2    -0.231229825709E+04   -0.18476E+00   -0.19665E+00  6265   0.637E-01    0.678E-01
RMM:   3    -0.231231763028E+04   -0.19373E-01   -0.22902E-01  5493   0.193E-01    0.522E-01
RMM:   4    -0.231231704642E+04    0.58386E-03   -0.22096E-02  5516   0.494E-02    0.333E-01
RMM:   5    -0.231231638560E+04    0.66083E-03   -0.41835E-03  4650   0.298E-02    0.164E-01
RMM:   6    -0.231231633136E+04    0.54231E-04   -0.83033E-04  4286   0.212E-02    0.934E-02
RMM:   7    -0.231231629423E+04    0.37138E-04   -0.21326E-04  3599   0.862E-03    0.527E-02
RMM:   8    -0.231231631351E+04   -0.19283E-04   -0.56202E-05  2882   0.580E-03    0.364E-02
RMM:   9    -0.231231631635E+04   -0.28396E-05   -0.25083E-05  2821   0.348E-03
  76 F= -.23324206E+04 E0= -.23324206E+04  d E =-.483506E-02  mag=     2.0000
       N       E                     dE             d eps       ncg     rms          rms(c)
DAV:   1    -0.231227144870E+04    0.44865E-01   -0.34581E+00  4376   0.141E+00    0.598E-01
RMM:   2    -0.231231503999E+04   -0.43591E-01   -0.45771E-01  6150   0.291E-01    0.349E-01
RMM:   3    -0.231231928070E+04   -0.42407E-02   -0.51847E-02  5366   0.102E-01    0.223E-01
RMM:   4    -0.231231942688E+04   -0.14617E-03   -0.52224E-03  4761   0.241E-02    0.137E-01
RMM:   5    -0.231231930788E+04    0.11900E-03   -0.56181E-04  4365   0.141E-02    0.656E-02
RMM:   6    -0.231231928173E+04    0.26148E-04   -0.11415E-04  3263   0.857E-03    0.328E-02
RMM:   7    -0.231231930085E+04   -0.19118E-04   -0.28211E-05  2865   0.504E-03    0.267E-02
RMM:   8    -0.231231929687E+04    0.39807E-05   -0.11715E-05  2810   0.306E-03
  77 F= -.23324232E+04 E0= -.23324232E+04  d E =-.744620E-02  mag=     2.0000
       N       E                     dE             d eps       ncg     rms          rms(c)
DAV:   1    -0.231231452133E+04    0.47795E-02   -0.75280E-01  4400   0.738E-01    0.284E-01
RMM:   2    -0.231232233286E+04   -0.78115E-02   -0.82976E-02  5993   0.142E-01    0.153E-01
RMM:   3    -0.231232295955E+04   -0.62669E-03   -0.86558E-03  5059   0.521E-02    0.979E-02
RMM:   4    -0.231232295841E+04    0.11371E-05   -0.10814E-03  4502   0.148E-02    0.575E-02
RMM:   5    -0.231232292423E+04    0.34183E-04   -0.13868E-04  3573   0.941E-03    0.222E-02
RMM:   6    -0.231232292140E+04    0.28318E-05   -0.24507E-05  2836   0.539E-03
  78 F= -.23324269E+04 E0= -.23324269E+04  d E =-.368034E-02  mag=     2.0000
       N       E                     dE             d eps       ncg     rms          rms(c)
DAV:   1    -0.231231435267E+04    0.85716E-02   -0.81927E-01  4400   0.769E-01    0.297E-01
RMM:   2    -0.231232287896E+04   -0.85263E-02   -0.90645E-02  6038   0.149E-01    0.161E-01
RMM:   3    -0.231232357941E+04   -0.70045E-03   -0.95532E-03  5113   0.548E-02    0.103E-01
RMM:   4    -0.231232358140E+04   -0.19916E-05   -0.11768E-03  4523   0.154E-02    0.605E-02
RMM:   5    -0.231232354567E+04    0.35734E-04   -0.14762E-04  3736   0.968E-03    0.244E-02
RMM:   6    -0.231232354247E+04    0.31960E-05   -0.26355E-05  2840   0.551E-03
  79 F= -.23324275E+04 E0= -.23324275E+04  d E =-.435759E-02  mag=     2.0000
       N       E                     dE             d eps       ncg     rms          rms(c)
DAV:   1    -0.231231824959E+04    0.52961E-02   -0.83253E-01  4400   0.806E-01    0.283E-01
RMM:   2    -0.231232564445E+04   -0.73949E-02   -0.79031E-02  6034   0.146E-01    0.149E-01
RMM:   3    -0.231232625019E+04   -0.60574E-03   -0.81631E-03  5118   0.515E-02    0.937E-02
RMM:   4    -0.231232625754E+04   -0.73492E-05   -0.94645E-04  4335   0.143E-02    0.531E-02
RMM:   5    -0.231232624063E+04    0.16904E-04   -0.11445E-04  3493   0.917E-03    0.194E-02
RMM:   6    -0.231232623979E+04    0.84164E-06   -0.19318E-05  2833   0.518E-03
  80 F= -.23324302E+04 E0= -.23324302E+04  d E =-.267867E-02  mag=     2.0000
       N       E                     dE             d eps       ncg     rms          rms(c)
DAV:   1    -0.231231250793E+04    0.13733E-01   -0.14683E+00  4376   0.107E+00    0.376E-01
RMM:   2    -0.231232552685E+04   -0.13019E-01   -0.13911E-01  6004   0.194E-01    0.198E-01
RMM:   3    -0.231232661969E+04   -0.10928E-02   -0.14660E-02  5147   0.690E-02    0.126E-01
RMM:   4    -0.231232662984E+04   -0.10152E-04   -0.16809E-03  4689   0.187E-02    0.725E-02
RMM:   5    -0.231232659346E+04    0.36378E-04   -0.21410E-04  4087   0.118E-02    0.258E-02
RMM:   6    -0.231232659182E+04    0.16475E-05   -0.32548E-05  2880   0.582E-03
  81 F= -.23324305E+04 E0= -.23324305E+04  d E =-.300224E-02  mag=     2.0000
       N       E                     dE             d eps       ncg     rms          rms(c)
DAV:   1    -0.231232481001E+04    0.17835E-02   -0.22289E-01  4432   0.417E-01    0.145E-01
RMM:   2    -0.231232675614E+04   -0.19461E-02   -0.20762E-02  6081   0.747E-02    0.765E-02
RMM:   3    -0.231232689900E+04   -0.14286E-03   -0.19849E-03  4374   0.262E-02    0.482E-02
RMM:   4    -0.231232689830E+04    0.70296E-06   -0.22357E-04  3107   0.747E-03    0.263E-02
RMM:   5    -0.231232689545E+04    0.28483E-05   -0.28315E-05  2894   0.543E-03
  82 F= -.23324309E+04 E0= -.23324309E+04  d E =-.331743E-02  mag=     2.0000
       N       E                     dE             d eps       ncg     rms          rms(c)
DAV:   1    -0.231232831510E+04   -0.14168E-02   -0.25546E-01  4400   0.510E-01    0.176E-01
RMM:   2    -0.231232968345E+04   -0.13684E-02   -0.15369E-02  5536   0.870E-02    0.881E-02
RMM:   3    -0.231232965662E+04    0.26834E-04   -0.12008E-03  4667   0.358E-02    0.530E-02
RMM:   4    -0.231232962804E+04    0.28575E-04   -0.26160E-04  4285   0.127E-02    0.233E-02
RMM:   5    -0.231232962701E+04    0.10282E-05   -0.25600E-05  2861   0.813E-03
  83 F= -.23324336E+04 E0= -.23324336E+04  d E =-.276283E-02  mag=     2.0000
       N       E                     dE             d eps       ncg     rms          rms(c)
DAV:   1    -0.231232940181E+04    0.22623E-03   -0.13861E-01  4464   0.377E-01    0.131E-01
RMM:   2    -0.231233016230E+04   -0.76049E-03   -0.84890E-03  5597   0.651E-02    0.662E-02
RMM:   3    -0.231233014951E+04    0.12796E-04   -0.64855E-04  4459   0.246E-02    0.397E-02
RMM:   4    -0.231233013329E+04    0.16223E-04   -0.14684E-04  4020   0.973E-03    0.168E-02
RMM:   5    -0.231233013237E+04    0.91498E-06   -0.14696E-05  2807   0.631E-03
  84 F= -.23324341E+04 E0= -.23324341E+04  d E =-.329075E-02  mag=     2.0000
       N       E                     dE             d eps       ncg     rms          rms(c)
DAV:   1    -0.231233110128E+04   -0.96799E-03   -0.30620E-01  4400   0.585E-01    0.194E-01
RMM:   2    -0.231233220481E+04   -0.11035E-02   -0.12904E-02  5304   0.903E-02    0.787E-02
RMM:   3    -0.231233212468E+04    0.80132E-04   -0.79736E-04  4588   0.335E-02    0.479E-02
RMM:   4    -0.231233209681E+04    0.27875E-04   -0.23811E-04  4251   0.124E-02    0.221E-02
RMM:   5    -0.231233209466E+04    0.21474E-05   -0.34588E-05  2985   0.812E-03
  85 F= -.23324361E+04 E0= -.23324361E+04  d E =-.193829E-02  mag=     2.0000
       N       E                     dE             d eps       ncg     rms          rms(c)
DAV:   1    -0.231233124785E+04    0.84896E-03   -0.30119E-01  4400   0.580E-01    0.193E-01
RMM:   2    -0.231233234404E+04   -0.10962E-02   -0.12743E-02  5290   0.901E-02    0.789E-02
RMM:   3    -0.231233226749E+04    0.76547E-04   -0.79929E-04  4608   0.312E-02    0.487E-02
RMM:   4    -0.231233223757E+04    0.29916E-04   -0.22452E-04  4223   0.121E-02    0.230E-02
RMM:   5    -0.231233223389E+04    0.36818E-05   -0.39094E-05  3080   0.790E-03
  86 F= -.23324362E+04 E0= -.23324362E+04  d E =-.205271E-02  mag=     2.0000
       N       E                     dE             d eps       ncg     rms          rms(c)
DAV:   1    -0.231233225933E+04   -0.21759E-04   -0.43730E-02  4624   0.220E-01    0.733E-02
RMM:   2    -0.231233240416E+04   -0.14483E-03   -0.17641E-03  5612   0.351E-02    0.299E-02
RMM:   3    -0.231233239496E+04    0.92011E-05   -0.13235E-04  3557   0.146E-02    0.175E-02
RMM:   4    -0.231233239211E+04    0.28521E-05   -0.29508E-05  2881   0.488E-03
  87 F= -.23324364E+04 E0= -.23324364E+04  d E =-.222046E-02  mag=     2.0000
       N       E                     dE             d eps       ncg     rms          rms(c)
DAV:   1    -0.231233242391E+04   -0.28949E-04   -0.39160E-01  4400   0.646E-01    0.177E-01
RMM:   2    -0.231233442356E+04   -0.19997E-02   -0.21846E-02  5435   0.102E-01    0.893E-02
RMM:   3    -0.231233440921E+04    0.14353E-04   -0.13502E-03  4631   0.413E-02    0.613E-02
RMM:   4    -0.231233438094E+04    0.28272E-04   -0.32078E-04  4227   0.118E-02    0.330E-02
RMM:   5    -0.231233436833E+04    0.12614E-04   -0.49426E-05  3129   0.841E-03    0.103E-02
RMM:   6    -0.231233436881E+04   -0.48291E-06   -0.12880E-05  2815   0.420E-03
  88 F= -.23324382E+04 E0= -.23324382E+04  d E =-.182475E-02  mag=     2.0000
       N       E                     dE             d eps       ncg     rms          rms(c)
DAV:   1    -0.231233382505E+04    0.54328E-03   -0.19145E-01  4400   0.452E-01    0.125E-01
RMM:   2    -0.231233480656E+04   -0.98151E-03   -0.10717E-02  5577   0.720E-02    0.634E-02
RMM:   3    -0.231233480633E+04    0.23734E-06   -0.71644E-04  4467   0.290E-02    0.438E-02
RMM:   4    -0.231233479264E+04    0.13683E-04   -0.15605E-04  3685   0.835E-03    0.241E-02
RMM:   5    -0.231233478591E+04    0.67283E-05   -0.27423E-05  2912   0.615E-03
  89 F= -.23324385E+04 E0= -.23324385E+04  d E =-.213476E-02  mag=     2.0000
       N       E                     dE             d eps       ncg     rms          rms(c)
DAV:   1    -0.231233444840E+04    0.34424E-03   -0.37353E-01  4376   0.627E-01    0.173E-01
RMM:   2    -0.231233664427E+04   -0.21959E-02   -0.23898E-02  5520   0.986E-02    0.862E-02
RMM:   3    -0.231233666564E+04   -0.21373E-04   -0.14692E-03  4594   0.378E-02    0.590E-02
RMM:   4    -0.231233664394E+04    0.21702E-04   -0.30765E-04  4050   0.106E-02    0.326E-02
RMM:   5    -0.231233663419E+04    0.97500E-05   -0.54274E-05  3138   0.755E-03
  90 F= -.23324402E+04 E0= -.23324402E+04  d E =-.168262E-02  mag=     2.0000
       N       E                     dE             d eps       ncg     rms          rms(c)
DAV:   1    -0.231233378169E+04    0.28623E-02   -0.62930E-01  4376   0.814E-01    0.225E-01
RMM:   2    -0.231233749959E+04   -0.37179E-02   -0.40380E-02  5490   0.128E-01    0.112E-01
RMM:   3    -0.231233752609E+04   -0.26500E-04   -0.23614E-03  4746   0.491E-02    0.759E-02
RMM:   4    -0.231233748842E+04    0.37671E-04   -0.51251E-04  4343   0.136E-02    0.413E-02
RMM:   5    -0.231233747322E+04    0.15200E-04   -0.87564E-05  3548   0.947E-03    0.124E-02
RMM:   6    -0.231233747379E+04   -0.57860E-06   -0.14717E-05  2821   0.466E-03
  91 F= -.23324408E+04 E0= -.23324408E+04  d E =-.230479E-02  mag=     2.0000
       N       E                     dE             d eps       ncg     rms          rms(c)
DAV:   1    -0.231233733119E+04    0.14203E-03   -0.30167E-01  4400   0.562E-01    0.143E-01
RMM:   2    -0.231233913787E+04   -0.18067E-02   -0.19380E-02  5577   0.872E-02    0.780E-02
RMM:   3    -0.231233917275E+04   -0.34875E-04   -0.12376E-03  4540   0.335E-02    0.556E-02
RMM:   4    -0.231233915597E+04    0.16781E-04   -0.23276E-04  3776   0.896E-03    0.326E-02
RMM:   5    -0.231233914639E+04    0.95740E-05   -0.44288E-05  3000   0.680E-03
  92 F= -.23324423E+04 E0= -.23324423E+04  d E =-.151053E-02  mag=     2.0000
       N       E                     dE             d eps       ncg     rms          rms(c)
DAV:   1    -0.231232497680E+04    0.14179E-01   -0.27125E+00  4376   0.169E+00    0.428E-01
RMM:   2    -0.231234135454E+04   -0.16378E-01   -0.17534E-01  5386   0.259E-01    0.234E-01
RMM:   3    -0.231234145781E+04   -0.10327E-03   -0.97139E-03  4768   0.959E-02    0.156E-01
RMM:   4    -0.231234127325E+04    0.18457E-03   -0.19967E-03  4499   0.271E-02    0.772E-02
RMM:   5    -0.231234124323E+04    0.30017E-04   -0.25113E-04  4273   0.185E-02    0.247E-02
RMM:   6    -0.231234124706E+04   -0.38285E-05   -0.41805E-05  3156   0.560E-03
  93 F= -.23324439E+04 E0= -.23324439E+04  d E =-.311761E-02  mag=     2.0000
       N       E                     dE             d eps       ncg     rms          rms(c)
DAV:   1    -0.231234099193E+04    0.25130E-03   -0.45022E-01  4400   0.690E-01    0.178E-01
RMM:   2    -0.231234319188E+04   -0.21999E-02   -0.24059E-02  5437   0.106E-01    0.891E-02
RMM:   3    -0.231234320396E+04   -0.12080E-04   -0.15716E-03  4719   0.414E-02    0.611E-02
RMM:   4    -0.231234318276E+04    0.21198E-04   -0.28580E-04  4125   0.111E-02    0.350E-02
RMM:   5    -0.231234317385E+04    0.89086E-05   -0.50789E-05  3130   0.783E-03
  94 F= -.23324457E+04 E0= -.23324457E+04  d E =-.180738E-02  mag=     2.0000
       N       E                     dE             d eps       ncg     rms          rms(c)
DAV:   1    -0.231233103014E+04    0.12153E-01   -0.28047E+00  4376   0.172E+00    0.440E-01
RMM:   2    -0.231234481907E+04   -0.13789E-01   -0.15023E-01  5341   0.262E-01    0.221E-01
RMM:   3    -0.231234475072E+04    0.68353E-04   -0.85844E-03  4744   0.104E-01    0.143E-01
RMM:   4    -0.231234458167E+04    0.16905E-03   -0.17322E-03  4469   0.283E-02    0.698E-02
RMM:   5    -0.231234456665E+04    0.15014E-04   -0.21949E-04  4227   0.197E-02    0.235E-02
RMM:   6    -0.231234456750E+04   -0.84889E-06   -0.36879E-05  3123   0.529E-03
  95 F= -.23324468E+04 E0= -.23324468E+04  d E =-.289954E-02  mag=     2.0000
       N       E                     dE             d eps       ncg     rms          rms(c)
DAV:   1    -0.231234381583E+04    0.75082E-03   -0.18290E-01  4496   0.439E-01    0.112E-01
RMM:   2    -0.231234469884E+04   -0.88301E-03   -0.96670E-03  5755   0.682E-02    0.568E-02
RMM:   3    -0.231234470148E+04   -0.26443E-05   -0.60793E-04  4309   0.258E-02    0.398E-02
RMM:   4    -0.231234469019E+04    0.11291E-04   -0.11660E-04  3321   0.748E-03    0.221E-02
RMM:   5    -0.231234468578E+04    0.44087E-05   -0.24601E-05  2894   0.565E-03
  96 F= -.23324470E+04 E0= -.23324470E+04  d E =-.309518E-02  mag=     2.0000
       N       E                     dE             d eps       ncg     rms          rms(c)
DAV:   1    -0.231234509653E+04   -0.40634E-03   -0.38180E-01  4400   0.625E-01    0.156E-01
RMM:   2    -0.231234673715E+04   -0.16406E-02   -0.17983E-02  5527   0.956E-02    0.812E-02
RMM:   3    -0.231234672601E+04    0.11145E-04   -0.11363E-03  4623   0.374E-02    0.537E-02
RMM:   4    -0.231234670512E+04    0.20885E-04   -0.22838E-04  4094   0.106E-02    0.284E-02
RMM:   5    -0.231234670177E+04    0.33560E-05   -0.26915E-05  2879   0.739E-03
  97 F= -.23324489E+04 E0= -.23324489E+04  d E =-.193090E-02  mag=     2.0000
       N       E                     dE             d eps       ncg     rms          rms(c)
DAV:   1    -0.231233649546E+04    0.10210E-01   -0.26997E+00  4376   0.166E+00    0.417E-01
RMM:   2    -0.231234830172E+04   -0.11806E-01   -0.12929E-01  5461   0.254E-01    0.217E-01
RMM:   3    -0.231234817225E+04    0.12947E-03   -0.81145E-03  4774   0.961E-02    0.140E-01
RMM:   4    -0.231234803223E+04    0.14002E-03   -0.16484E-03  4550   0.280E-02    0.708E-02
RMM:   5    -0.231234801926E+04    0.12978E-04   -0.18953E-04  4155   0.181E-02    0.354E-02
RMM:   6    -0.231234801218E+04    0.70756E-05   -0.57451E-05  3138   0.544E-03
  98 F= -.23324500E+04 E0= -.23324500E+04  d E =-.301673E-02  mag=     2.0000
       N       E                     dE             d eps       ncg     rms          rms(c)
DAV:   1    -0.231234726370E+04    0.75556E-03   -0.22954E-01  4400   0.485E-01    0.120E-01
RMM:   2    -0.231234825512E+04   -0.99142E-03   -0.10875E-02  5728   0.755E-02    0.628E-02
RMM:   3    -0.231234825609E+04   -0.97087E-06   -0.71961E-04  4393   0.289E-02    0.426E-02
RMM:   4    -0.231234824293E+04    0.13160E-04   -0.13653E-04  3746   0.842E-03    0.230E-02
RMM:   5    -0.231234823959E+04    0.33394E-05   -0.19510E-05  2855   0.599E-03
[...]
 116 F= -.23324617E+04 E0= -.23324617E+04  d E =-.621058E-03  mag=     2.0000
       N       E                     dE             d eps       ncg     rms          rms(c)
DAV:   1    -0.231236061645E+04    0.10230E-03   -0.78246E-02  4400   0.292E-01    0.736E-02
RMM:   2    -0.231236084674E+04   -0.23029E-03   -0.25669E-03  4978   0.431E-02    0.363E-02
RMM:   3    -0.231236082818E+04    0.18558E-04   -0.16068E-04  3855   0.183E-02    0.230E-02
RMM:   4    -0.231236082071E+04    0.74745E-05   -0.56045E-05  3552   0.614E-03
 117 F= -.23324618E+04 E0= -.23324618E+04  d E =-.714905E-03  mag=     2.0000
       N       E                     dE             d eps       ncg     rms          rms(c)
DAV:   1    -0.231236114073E+04   -0.31254E-03   -0.10429E-01  4400   0.331E-01    0.773E-02
RMM:   2    -0.231236143980E+04   -0.29907E-03   -0.33262E-03  5449   0.498E-02    0.411E-02
RMM:   3    -0.231236142031E+04    0.19484E-04   -0.20761E-04  4081   0.192E-02    0.257E-02
RMM:   4    -0.231236141227E+04    0.80402E-05   -0.54131E-05  3328   0.626E-03
 118 F= -.23324624E+04 E0= -.23324624E+04  d E =-.583954E-03  mag=     2.0000
       N       E                     dE             d eps       ncg     rms          rms(c)
DAV:   1    -0.231236110021E+04    0.32010E-03   -0.22649E-01  4388   0.488E-01    0.113E-01
RMM:   2    -0.231236174757E+04   -0.64736E-03   -0.71803E-03  5270   0.719E-02    0.607E-02
RMM:   3    -0.231236171271E+04    0.34860E-04   -0.50331E-04  4546   0.309E-02    0.384E-02
RMM:   4    -0.231236169503E+04    0.17679E-04   -0.12172E-04  4033   0.905E-03    0.165E-02
RMM:   5    -0.231236169363E+04    0.14007E-05   -0.19029E-05  2832   0.624E-03
 119 F= -.23324627E+04 E0= -.23324627E+04  d E =-.854278E-03  mag=     2.0000
       N       E                     dE             d eps       ncg     rms          rms(c)
DAV:   1    -0.231236186123E+04   -0.16620E-03   -0.16061E-01  4400   0.412E-01    0.106E-01
RMM:   2    -0.231236231781E+04   -0.45658E-03   -0.51582E-03  5010   0.607E-02    0.521E-02
RMM:   3    -0.231236228296E+04    0.34849E-04   -0.32399E-04  4325   0.258E-02    0.320E-02
RMM:   4    -0.231236227031E+04    0.12652E-04   -0.11023E-04  3996   0.840E-03    0.125E-02
RMM:   5    -0.231236227015E+04    0.15536E-06   -0.10400E-05  2819   0.545E-03
 120 F= -.23324633E+04 E0= -.23324633E+04  d E =-.605388E-03  mag=     2.0000
       N       E                     dE             d eps       ncg     rms          rms(c)
DAV:   1    -0.231236218758E+04    0.82722E-04   -0.59294E-02  4496   0.250E-01    0.648E-02
RMM:   2    -0.231236235988E+04   -0.17229E-03   -0.19375E-03  4903   0.371E-02    0.321E-02
RMM:   3    -0.231236234478E+04    0.15096E-04   -0.11674E-04  3578   0.156E-02    0.197E-02
RMM:   4    -0.231236233955E+04    0.52353E-05   -0.44358E-05  3296   0.563E-03
 121 F= -.23324634E+04 E0= -.23324634E+04  d E =-.692232E-03  mag=     2.0000
       N       E                     dE             d eps       ncg     rms          rms(c)
DAV:   1    -0.231236242140E+04   -0.76620E-04   -0.13380E-01  4400   0.372E-01    0.101E-01
RMM:   2    -0.231236286802E+04   -0.44662E-03   -0.49698E-03  5344   0.566E-02    0.507E-02
RMM:   3    -0.231236284210E+04    0.25926E-04   -0.32115E-04  4324   0.240E-02    0.310E-02
RMM:   4    -0.231236283171E+04    0.10388E-04   -0.93403E-05  3859   0.764E-03    0.116E-02
RMM:   5    -0.231236283173E+04   -0.22046E-07   -0.83956E-06  2812   0.522E-03
 122 F= -.23324639E+04 E0= -.23324639E+04  d E =-.576764E-03  mag=     2.0000
       N       E                     dE             d eps       ncg     rms          rms(c)
DAV:   1    -0.231236268114E+04    0.15057E-03   -0.60217E-02  4400   0.250E-01    0.675E-02
RMM:   2    -0.231236288507E+04   -0.20393E-03   -0.22613E-03  5078   0.376E-02    0.343E-02
RMM:   3    -0.231236287306E+04    0.12014E-04   -0.15159E-04  3590   0.164E-02    0.211E-02
RMM:   4    -0.231236286818E+04    0.48786E-05   -0.48612E-05  3255   0.578E-03
 123 F= -.23324640E+04 E0= -.23324640E+04  d E =-.669947E-03  mag=     2.0000
       N       E                     dE             d eps       ncg     rms          rms(c)
DAV:   1    -0.231236296536E+04   -0.92294E-04   -0.16230E-01  4400   0.408E-01    0.115E-01
RMM:   2    -0.231236345346E+04   -0.48810E-03   -0.55515E-03  5370   0.621E-02    0.551E-02
RMM:   3    -0.231236341941E+04    0.34040E-04   -0.34976E-04  4450   0.255E-02    0.336E-02
RMM:   4    -0.231236340644E+04    0.12978E-04   -0.10749E-04  3945   0.839E-03    0.129E-02
RMM:   5    -0.231236340658E+04   -0.14350E-06   -0.96474E-06  2815   0.555E-03
 124 F= -.23324646E+04 E0= -.23324646E+04  d E =-.595618E-03  mag=     2.0000
       N       E                     dE             d eps       ncg     rms          rms(c)
DAV:   1    -0.231236329396E+04    0.11247E-03   -0.52031E-02  4480   0.231E-01    0.649E-02
RMM:   2    -0.231236345376E+04   -0.15980E-03   -0.18066E-03  5205   0.352E-02    0.318E-02
RMM:   3    -0.231236344232E+04    0.11437E-04   -0.11454E-04  3459   0.141E-02    0.195E-02
RMM:   4    -0.231236343771E+04    0.46120E-05   -0.37583E-05  3074   0.534E-03
 125 F= -.23324647E+04 E0= -.23324647E+04  d E =-.658947E-03  mag=     2.0000
       N       E                     dE             d eps       ncg     rms          rms(c)
DAV:   1    -0.231236369152E+04   -0.24920E-03   -0.11400E-01  4400   0.336E-01    0.907E-02
RMM:   2    -0.231236402214E+04   -0.33062E-03   -0.37302E-03  5575   0.513E-02    0.475E-02
RMM:   3    -0.231236399679E+04    0.25348E-04   -0.20052E-04  4024   0.193E-02    0.287E-02
RMM:   4    -0.231236398888E+04    0.79085E-05   -0.67633E-05  3594   0.681E-03
 126 F= -.23324652E+04 E0= -.23324652E+04  d E =-.549223E-03  mag=     2.0000
       N       E                     dE             d eps       ncg     rms          rms(c)
DAV:   1    -0.231236373369E+04    0.26310E-03   -0.17602E-01  4400   0.418E-01    0.113E-01
RMM:   2    -0.231236424616E+04   -0.51247E-03   -0.57728E-03  5766   0.645E-02    0.593E-02
RMM:   3    -0.231236421128E+04    0.34887E-04   -0.33442E-04  4410   0.227E-02    0.361E-02
RMM:   4    -0.231236419914E+04    0.12137E-04   -0.10886E-04  3831   0.836E-03    0.147E-02
RMM:   5    -0.231236419865E+04    0.48851E-06   -0.11998E-05  2844   0.525E-03
 127 F= -.23324655E+04 E0= -.23324655E+04  d E =-.756362E-03  mag=     2.0000
       N       E                     dE             d eps       ncg     rms          rms(c)
DAV:   1    -0.231236443680E+04   -0.23766E-03   -0.11398E-01  4400   0.332E-01    0.901E-02
RMM:   2    -0.231236478267E+04   -0.34587E-03   -0.38852E-03  5604   0.515E-02    0.483E-02
RMM:   3    -0.231236476039E+04    0.22287E-04   -0.20293E-04  3831   0.169E-02    0.297E-02
RMM:   4    -0.231236475144E+04    0.89483E-05   -0.73127E-05  3647   0.691E-03
 128 F= -.23324660E+04 E0= -.23324660E+04  d E =-.587276E-03  mag=     2.0000
       N       E                     dE             d eps       ncg     rms          rms(c)
DAV:   1    -0.231236433958E+04    0.42080E-03   -0.23960E-01  4376   0.482E-01    0.131E-01
RMM:   2    -0.231236506513E+04   -0.72555E-03   -0.81600E-03  5864   0.755E-02    0.692E-02
RMM:   3    -0.231236502276E+04    0.42368E-04   -0.43545E-04  4560   0.238E-02    0.423E-02
RMM:   4    -0.231236500365E+04    0.19109E-04   -0.13795E-04  4011   0.946E-03    0.159E-02
RMM:   5    -0.231236500444E+04   -0.78348E-06   -0.14206E-05  2843   0.561E-03
 129 F= -.23324663E+04 E0= -.23324663E+04  d E =-.890348E-03  mag=     2.0000
       N       E                     dE             d eps       ncg     rms          rms(c)
DAV:   1    -0.231236519805E+04   -0.19440E-03   -0.17858E-01  4400   0.414E-01    0.123E-01
RMM:   2    -0.231236573232E+04   -0.53426E-03   -0.60658E-03  5637   0.650E-02    0.607E-02
RMM:   3    -0.231236569439E+04    0.37925E-04   -0.32486E-04  4286   0.208E-02    0.370E-02
RMM:   4    -0.231236567938E+04    0.15008E-04   -0.12370E-04  3978   0.872E-03    0.143E-02
RMM:   5    -0.231236567959E+04   -0.21110E-06   -0.11201E-05  2828   0.525E-03
 130 F= -.23324671E+04 E0= -.23324671E+04  d E =-.727325E-03  mag=     2.0000
       N       E                     dE             d eps       ncg     rms          rms(c)
DAV:   1    -0.231236547504E+04    0.20435E-03   -0.11808E-01  4416   0.337E-01    0.100E-01
RMM:   2    -0.231236583108E+04   -0.35604E-03   -0.40452E-03  5556   0.530E-02    0.498E-02
RMM:   3    -0.231236580362E+04    0.27466E-04   -0.21803E-04  3895   0.169E-02    0.305E-02
RMM:   4    -0.231236579222E+04    0.11399E-04   -0.86946E-05  3822   0.731E-03    0.121E-02
RMM:   5    -0.231236579191E+04    0.30552E-06   -0.88485E-06  2820   0.475E-03
 131 F= -.23324672E+04 E0= -.23324672E+04  d E =-.882118E-03  mag=     2.0000
       N       E                     dE             d eps       ncg     rms          rms(c)
DAV:   1    -0.231236596507E+04   -0.17285E-03   -0.15534E-01  4400   0.374E-01    0.113E-01
RMM:   2    -0.231236641844E+04   -0.45337E-03   -0.51782E-03  5486   0.584E-02    0.588E-02
RMM:   3    -0.231236638430E+04    0.34134E-04   -0.29621E-04  4133   0.200E-02    0.353E-02
RMM:   4    -0.231236637313E+04    0.11169E-04   -0.11339E-04  3933   0.813E-03    0.141E-02
RMM:   5    -0.231236637261E+04    0.52339E-06   -0.10537E-05  2829   0.488E-03
 132 F= -.23324679E+04 E0= -.23324679E+04  d E =-.634539E-03  mag=     2.0000
       N       E                     dE             d eps       ncg     rms          rms(c)
DAV:   1    -0.231236623247E+04    0.14066E-03   -0.85944E-02  4416   0.279E-01    0.847E-02
RMM:   2    -0.231236648775E+04   -0.25528E-03   -0.28972E-03  5433   0.438E-02    0.442E-02
RMM:   3    -0.231236646827E+04    0.19476E-04   -0.16783E-04  3657   0.150E-02    0.268E-02
RMM:   4    -0.231236646168E+04    0.65910E-05   -0.64518E-05  3465   0.626E-03
 133 F= -.23324680E+04 E0= -.23324680E+04  d E =-.763733E-03  mag=     2.0000
       N       E                     dE             d eps       ncg     rms          rms(c)
DAV:   1    -0.231236654061E+04   -0.72339E-04   -0.20082E-01  4400   0.422E-01    0.138E-01
RMM:   2    -0.231236710686E+04   -0.56625E-03   -0.66638E-03  5730   0.670E-02    0.664E-02
RMM:   3    -0.231236706710E+04    0.39758E-04   -0.43237E-04  4513   0.241E-02    0.395E-02
RMM:   4    -0.231236705249E+04    0.14612E-04   -0.13076E-04  3988   0.889E-03    0.154E-02
RMM:   5    -0.231236705269E+04   -0.19572E-06   -0.13711E-05  2840   0.556E-03
 134 F= -.23324687E+04 E0= -.23324687E+04  d E =-.660677E-03  mag=     2.0000
       N       E                     dE             d eps       ncg     rms          rms(c)
DAV:   1    -0.231236698571E+04    0.66780E-04   -0.33066E-02  4608   0.172E-01    0.559E-02
RMM:   2    -0.231236708271E+04   -0.97000E-04   -0.11223E-03  5603   0.280E-02    0.273E-02
RMM:   3    -0.231236707594E+04    0.67701E-05   -0.69936E-05  2993   0.951E-03
 135 F= -.23324687E+04 E0= -.23324687E+04  d E =-.712256E-03  mag=     2.0000
       N       E                     dE             d eps       ncg     rms          rms(c)
DAV:   1    -0.231236723896E+04   -0.15625E-03   -0.19703E-01  4400   0.410E-01    0.130E-01
RMM:   2    -0.231236777143E+04   -0.53246E-03   -0.62064E-03  5477   0.620E-02    0.669E-02
RMM:   3    -0.231236772664E+04    0.44782E-04   -0.37981E-04  4254   0.212E-02    0.391E-02
RMM:   4    -0.231236771289E+04    0.13750E-04   -0.14250E-04  3990   0.885E-03    0.140E-02
RMM:   5    -0.231236771232E+04    0.57289E-06   -0.10758E-05  2822   0.557E-03
 136 F= -.23324694E+04 E0= -.23324694E+04  d E =-.690648E-03  mag=     2.0000
       N       E                     dE             d eps       ncg     rms          rms(c)
DAV:   1    -0.231236763951E+04    0.73379E-04   -0.50485E-02  4448   0.208E-01    0.655E-02
RMM:   2    -0.231236778134E+04   -0.14183E-03   -0.16323E-03  5405   0.322E-02    0.341E-02
RMM:   3    -0.231236776904E+04    0.12302E-04   -0.95768E-05  3175   0.114E-02    0.202E-02
RMM:   4    -0.231236776489E+04    0.41461E-05   -0.36804E-05  2940   0.497E-03
 137 F= -.23324695E+04 E0= -.23324695E+04  d E =-.770733E-03  mag=     2.0000
       N       E                     dE             d eps       ncg     rms          rms(c)
DAV:   1    -0.231236799405E+04   -0.22501E-03   -0.17162E-01  4400   0.384E-01    0.119E-01
RMM:   2    -0.231236841132E+04   -0.41728E-03   -0.48694E-03  5502   0.576E-02    0.610E-02
RMM:   3    -0.231236836765E+04    0.43674E-04   -0.29985E-04  4377   0.225E-02    0.355E-02
RMM:   4    -0.231236835585E+04    0.11802E-04   -0.10618E-04  3888   0.808E-03    0.127E-02
RMM:   5    -0.231236835637E+04   -0.52049E-06   -0.95821E-06  2817   0.538E-03
 138 F= -.23324702E+04 E0= -.23324702E+04  d E =-.675860E-03  mag=     2.0000
       N       E                     dE             d eps       ncg     rms          rms(c)
DAV:   1    -0.231236817782E+04    0.17802E-03   -0.12961E-01  4400   0.334E-01    0.103E-01
RMM:   2    -0.231236849534E+04   -0.31752E-03   -0.36908E-03  5320   0.499E-02    0.532E-02
RMM:   3    -0.231236846363E+04    0.31710E-04   -0.21646E-04  3907   0.179E-02    0.312E-02
RMM:   4    -0.231236845479E+04    0.88462E-05   -0.89673E-05  3857   0.739E-03
 139 F= -.23324703E+04 E0= -.23324703E+04  d E =-.847909E-03  mag=     2.0000
       N       E                     dE             d eps       ncg     rms          rms(c)
DAV:   1    -0.231236862511E+04   -0.16148E-03   -0.18894E-01  4400   0.400E-01    0.121E-01
RMM:   2    -0.231236909430E+04   -0.46919E-03   -0.54718E-03  5774   0.619E-02    0.640E-02
RMM:   3    -0.231236904658E+04    0.47725E-04   -0.31542E-04  4667   0.203E-02    0.374E-02
RMM:   4    -0.231236903249E+04    0.14088E-04   -0.99828E-05  3775   0.796E-03    0.136E-02
RMM:   5    -0.231236903369E+04   -0.12022E-05   -0.10627E-05  2820   0.502E-03
 140 F= -.23324710E+04 E0= -.23324710E+04  d E =-.703904E-03  mag=     2.0000
       N       E                     dE             d eps       ncg     rms          rms(c)
DAV:   1    -0.231236876219E+04    0.27030E-03   -0.14674E-01  4400   0.353E-01    0.106E-01
RMM:   2    -0.231236912544E+04   -0.36325E-03   -0.42464E-03  5412   0.534E-02    0.567E-02
RMM:   3    -0.231236908965E+04    0.35783E-04   -0.24193E-04  4108   0.184E-02    0.334E-02
RMM:   4    -0.231236907716E+04    0.12489E-04   -0.90368E-05  3865   0.759E-03    0.119E-02
RMM:   5    -0.231236907730E+04   -0.13341E-06   -0.87508E-06  2811   0.485E-03
 141 F= -.23324712E+04 E0= -.23324712E+04  d E =-.858186E-03  mag=     2.0000
       N       E                     dE             d eps       ncg     rms          rms(c)
DAV:   1    -0.231236924938E+04   -0.17222E-03   -0.16358E-01  4400   0.365E-01    0.106E-01
RMM:   2    -0.231236971881E+04   -0.46943E-03   -0.52732E-03  5426   0.545E-02    0.603E-02
RMM:   3    -0.231236968716E+04    0.31650E-04   -0.29010E-04  3923   0.180E-02    0.359E-02
RMM:   4    -0.231236967483E+04    0.12337E-04   -0.96159E-05  3786   0.743E-03    0.132E-02
RMM:   5    -0.231236967541E+04   -0.58103E-06   -0.97644E-06  2824   0.482E-03
 142 F= -.23324718E+04 E0= -.23324718E+04  d E =-.663065E-03  mag=     2.0000
       N       E                     dE             d eps       ncg     rms          rms(c)
DAV:   1    -0.231236903486E+04    0.63997E-03   -0.33080E-01  4388   0.520E-01    0.151E-01
RMM:   2    -0.231236998414E+04   -0.94928E-03   -0.10658E-02  5387   0.773E-02    0.857E-02
RMM:   3    -0.231236992022E+04    0.63916E-04   -0.59112E-04  4412   0.261E-02    0.511E-02
RMM:   4    -0.231236989473E+04    0.25495E-04   -0.19301E-04  4083   0.101E-02    0.187E-02
RMM:   5    -0.231236989531E+04   -0.58328E-06   -0.18805E-05  2840   0.641E-03
 143 F= -.23324722E+04 E0= -.23324722E+04  d E =-.976582E-03  mag=     2.0000
       N       E                     dE             d eps       ncg     rms          rms(c)
DAV:   1    -0.231236984644E+04    0.48289E-04   -0.26822E-01  4400   0.476E-01    0.148E-01
RMM:   2    -0.231237074559E+04   -0.89915E-03   -0.10082E-02  5402   0.730E-02    0.782E-02
RMM:   3    -0.231237069643E+04    0.49154E-04   -0.58678E-04  4496   0.239E-02    0.468E-02
RMM:   4    -0.231237067499E+04    0.21442E-04   -0.17338E-04  4043   0.952E-03    0.181E-02
RMM:   5    -0.231237067530E+04   -0.31039E-06   -0.18895E-05  2848   0.636E-03
 144 F= -.23324730E+04 E0= -.23324730E+04  d E =-.834409E-03  mag=     2.0000
       N       E                     dE             d eps       ncg     rms          rms(c)
DAV:   1    -0.231237033020E+04    0.34479E-03   -0.14435E-01  4400   0.350E-01    0.109E-01
RMM:   2    -0.231237081841E+04   -0.48821E-03   -0.54623E-03  5417   0.542E-02    0.576E-02
RMM:   3    -0.231237079198E+04    0.26432E-04   -0.32615E-04  4071   0.179E-02    0.346E-02
RMM:   4    -0.231237077931E+04    0.12668E-04   -0.92941E-05  3684   0.726E-03    0.136E-02
RMM:   5    -0.231237077900E+04    0.30975E-06   -0.11761E-05  2825   0.509E-03
 145 F= -.23324731E+04 E0= -.23324731E+04  d E =-.978684E-03  mag=     2.0000
       N       E                     dE             d eps       ncg     rms          rms(c)
DAV:   1    -0.231237014526E+04    0.63405E-03   -0.30875E-01  4388   0.505E-01    0.159E-01
RMM:   2    -0.231237146625E+04   -0.13210E-02   -0.14430E-02  5584   0.791E-02    0.862E-02
RMM:   3    -0.231237145221E+04    0.14040E-04   -0.97167E-04  4499   0.294E-02    0.526E-02
RMM:   4    -0.231237143186E+04    0.20353E-04   -0.22966E-04  4076   0.101E-02    0.219E-02
RMM:   5    -0.231237143035E+04    0.15077E-05   -0.25009E-05  2873   0.680E-03
 146 F= -.23324739E+04 E0= -.23324739E+04  d E =-.792808E-03  mag=     2.0000
       N       E                     dE             d eps       ncg     rms          rms(c)
DAV:   1    -0.231237099461E+04    0.43725E-03   -0.10411E-01  4448   0.294E-01    0.926E-02
RMM:   2    -0.231237144631E+04   -0.45170E-03   -0.49155E-03  5586   0.468E-02    0.507E-02
RMM:   3    -0.231237144139E+04    0.49180E-05   -0.33495E-04  3687   0.162E-02    0.310E-02
RMM:   4    -0.231237143412E+04    0.72689E-05   -0.77514E-05  3196   0.623E-03
 147 F= -.23324740E+04 E0= -.23324740E+04  d E =-.879330E-03  mag=     2.0000
       N       E                     dE             d eps       ncg     rms          rms(c)
DAV:   1    -0.231237035326E+04    0.10881E-02   -0.32849E-01  4388   0.512E-01    0.169E-01
RMM:   2    -0.231237203862E+04   -0.16854E-02   -0.18273E-02  5801   0.826E-02    0.914E-02
RMM:   3    -0.231237205452E+04   -0.15902E-04   -0.13708E-03  4648   0.320E-02    0.559E-02
RMM:   4    -0.231237203030E+04    0.24226E-04   -0.28158E-04  4029   0.102E-02    0.234E-02
RMM:   5    -0.231237202749E+04    0.28033E-05   -0.29018E-05  2884   0.711E-03
 148 F= -.23324748E+04 E0= -.23324748E+04  d E =-.768911E-03  mag=     2.0000
       N       E                     dE             d eps       ncg     rms          rms(c)
DAV:   1    -0.231237175443E+04    0.27587E-03   -0.45034E-02  4672   0.190E-01    0.629E-02
RMM:   2    -0.231237199096E+04   -0.23653E-03   -0.25527E-03  5808   0.320E-02    0.346E-02
RMM:   3    -0.231237199544E+04   -0.44765E-05   -0.20807E-04  3120   0.122E-02    0.213E-02
RMM:   4    -0.231237199181E+04    0.36266E-05   -0.38612E-05  2858   0.432E-03
 149 F= -.23324748E+04 E0= -.23324748E+04  d E =-.798542E-03  mag=     2.0000
       N       E                     dE             d eps       ncg     rms          rms(c)
DAV:   1    -0.231237056637E+04    0.14291E-02   -0.36065E-01  4388   0.528E-01    0.177E-01
RMM:   2    -0.231237257744E+04   -0.20111E-02   -0.21639E-02  5887   0.864E-02    0.963E-02
RMM:   3    -0.231237262608E+04   -0.48636E-04   -0.17004E-03  4647   0.305E-02    0.593E-02
RMM:   4    -0.231237260296E+04    0.23119E-04   -0.31422E-04  4067   0.104E-02    0.259E-02
RMM:   5    -0.231237260041E+04    0.25442E-05   -0.35134E-05  2911   0.723E-03
 150 F= -.23324756E+04 E0= -.23324756E+04  d E =-.784554E-03  mag=     2.0000
