       N       E                     dE             d eps       ncg     rms          rms(c)
DAV:   1     0.129363817274E+05    0.12936E+05   -0.82960E+05  4440   0.144E+03
DAV:   2    -0.102023946335E+04   -0.13957E+05   -0.13342E+05  5088   0.331E+02
DAV:   3    -0.245922842653E+04   -0.14390E+04   -0.14241E+04  5368   0.113E+02
DAV:   4    -0.250293100637E+04   -0.43703E+02   -0.43476E+02  6704   0.289E+01
DAV:   5    -0.250369629301E+04   -0.76529E+00   -0.76387E+00  5808   0.331E+00    0.170E+02
RMM:   6    -0.147768429264E+04    0.10260E+04   -0.19095E+03  4399   0.382E+01    0.722E+01
RMM:   7    -0.165219104637E+04   -0.17451E+03   -0.29703E+02  5030   0.142E+01    0.508E+01
RMM:   8    -0.170077524144E+04   -0.48584E+02   -0.43711E+01  5355   0.675E+00    0.451E+01
RMM:   9    -0.177565947286E+04   -0.74884E+02   -0.68273E+01  4845   0.759E+00    0.355E+01
RMM:  10    -0.191351757919E+04   -0.13786E+03   -0.67604E+01  5150   0.803E+00    0.249E+01
RMM:  11    -0.197550917075E+04   -0.61992E+02   -0.25109E+01  5058   0.422E+00    0.257E+01
RMM:  12    -0.203474111505E+04   -0.59232E+02   -0.22062E+01  4909   0.369E+00    0.187E+01
RMM:  13    -0.207837547031E+04   -0.43634E+02   -0.13914E+01  5092   0.297E+00    0.137E+01
RMM:  14    -0.221495400230E+04   -0.13658E+03   -0.11921E+02  4422   0.755E+00    0.952E+00
RMM:  15    -0.226866005920E+04   -0.53706E+02   -0.46603E+01  4404   0.489E+00    0.682E+00
RMM:  16    -0.228758364808E+04   -0.18924E+02   -0.17558E+01  4723   0.334E+00    0.793E+00
RMM:  17    -0.229044969693E+04   -0.28660E+01   -0.36095E+00  5085   0.136E+00    0.620E+00
RMM:  18    -0.229514569144E+04   -0.46960E+01   -0.29095E+00  4393   0.128E+00    0.303E+00
RMM:  19    -0.229740915766E+04   -0.22635E+01   -0.83115E-01  4539   0.740E-01    0.150E+00
RMM:  20    -0.229820259027E+04   -0.79343E+00   -0.21859E-01  4842   0.344E-01    0.927E-01
RMM:  21    -0.229832526065E+04   -0.12267E+00   -0.55547E-02  4892   0.199E-01    0.100E+00
RMM:  22    -0.229835062899E+04   -0.25368E-01   -0.13567E-02  5056   0.855E-02    0.981E-01
RMM:  23    -0.229838477730E+04   -0.34148E-01   -0.38048E-02  4441   0.116E-01    0.583E-01
RMM:  24    -0.229842183330E+04   -0.37056E-01   -0.10350E-02  4458   0.866E-02    0.595E-01
RMM:  25    -0.229843238266E+04   -0.10549E-01   -0.26392E-03  4619   0.428E-02    0.551E-01
RMM:  26    -0.229844675510E+04   -0.14372E-01   -0.59297E-03  4397   0.369E-02    0.600E-01
RMM:  27    -0.229844262814E+04    0.41270E-02   -0.95256E-04  3976   0.208E-02    0.430E-01
RMM:  28    -0.229846381827E+04   -0.21190E-01   -0.77717E-03  4399   0.664E-02    0.303E-01
RMM:  29    -0.229847823063E+04   -0.14412E-01   -0.41102E-03  4401   0.537E-02    0.342E-01
RMM:  30    -0.229849109428E+04   -0.12864E-01   -0.31406E-03  4389   0.479E-02    0.170E-01
RMM:  31    -0.229849939113E+04   -0.82968E-02   -0.20403E-03  4399   0.430E-02    0.128E-01
RMM:  32    -0.229850409017E+04   -0.46990E-02   -0.11988E-03  4285   0.341E-02    0.132E-01
RMM:  33    -0.229850887199E+04   -0.47818E-02   -0.15327E-03  4346   0.346E-02    0.127E-01
RMM:  34    -0.229851088746E+04   -0.20155E-02   -0.11063E-03  4068   0.331E-02    0.114E-01
RMM:  35    -0.229851163145E+04   -0.74398E-03   -0.76036E-04  3963   0.247E-02    0.779E-02
RMM:  36    -0.229851175165E+04   -0.12020E-03   -0.25025E-04  3731   0.163E-02    0.666E-02
RMM:  37    -0.229851180533E+04   -0.53683E-04   -0.10937E-04  3599   0.793E-03    0.558E-02
RMM:  38    -0.229851184255E+04   -0.37214E-04   -0.11488E-04  3316   0.711E-03    0.469E-02
RMM:  39    -0.229851183937E+04    0.31797E-05   -0.75397E-05  2997   0.546E-03
   1 F= -.23192117E+04 E0= -.23192019E+04  d E =-.231921E+04  mag=     5.6538
       N       E                     dE             d eps       ncg     rms          rms(c)
DAV:   1    -0.229857131201E+04   -0.59469E-01   -0.10982E+01  4960   0.271E+00    0.959E-01
RMM:   2    -0.229875415317E+04   -0.18284E+00   -0.18621E+00  6213   0.583E-01    0.771E-01
RMM:   3    -0.229876782600E+04   -0.13673E-01   -0.20117E-01  5620   0.250E-01    0.563E-01
RMM:   4    -0.229876755453E+04    0.27148E-03   -0.17476E-02  5695   0.479E-02    0.506E-01
RMM:   5    -0.229876716316E+04    0.39137E-03   -0.96180E-04  4267   0.161E-02    0.471E-01
RMM:   6    -0.229876770141E+04   -0.53825E-03   -0.18564E-03  4485   0.188E-02    0.865E-01
RMM:   7    -0.229876858427E+04   -0.88286E-03   -0.60060E-04  3360   0.117E-02    0.949E-01
RMM:   8    -0.229876859891E+04   -0.14640E-04   -0.12608E-04  2987   0.512E-03    0.947E-01
RMM:   9    -0.229876791288E+04    0.68603E-03   -0.17730E-03  4132   0.162E-02    0.938E-01
RMM:  10    -0.229876696538E+04    0.94749E-03   -0.33978E-03  4402   0.228E-02    0.848E-01
RMM:  11    -0.229876691164E+04    0.53743E-04   -0.18036E-04  2925   0.799E-03    0.808E-01
RMM:  12    -0.229876142659E+04    0.54850E-02   -0.15189E-02  4685   0.465E-02    0.797E-01
RMM:  13    -0.229876005287E+04    0.13737E-02   -0.66380E-03  4771   0.344E-02    0.300E-01
RMM:  14    -0.229876357087E+04   -0.35180E-02   -0.67972E-03  4404   0.310E-02    0.203E-01
RMM:  15    -0.229876493964E+04   -0.13688E-02   -0.35077E-03  4341   0.264E-02    0.121E-01
RMM:  16    -0.229876538382E+04   -0.44418E-03   -0.21033E-03  4646   0.187E-02    0.146E-01
RMM:  17    -0.229876533243E+04    0.51385E-04   -0.37430E-04  3525   0.936E-03    0.154E-01
RMM:  18    -0.229876523183E+04    0.10061E-03   -0.35043E-04  3417   0.774E-03    0.188E-01
RMM:  19    -0.229876509513E+04    0.13669E-03   -0.17821E-04  3026   0.680E-03    0.212E-01
RMM:  20    -0.229876539051E+04   -0.29538E-03   -0.75249E-04  3485   0.100E-02    0.156E-01
RMM:  21    -0.229876548637E+04   -0.95860E-04   -0.55351E-04  3631   0.961E-03    0.101E-01
RMM:  22    -0.229876560413E+04   -0.11776E-03   -0.75781E-04  3740   0.107E-02    0.782E-02
RMM:  23    -0.229876566417E+04   -0.60032E-04   -0.28797E-04  3182   0.779E-03    0.755E-02
RMM:  24    -0.229876562223E+04    0.41934E-04   -0.62279E-05  2846   0.474E-03    0.630E-02
RMM:  25    -0.229876555055E+04    0.71683E-04   -0.23509E-04  2942   0.544E-03    0.689E-02
RMM:  26    -0.229876553101E+04    0.19539E-04   -0.26272E-05  2616   0.288E-03    0.742E-02
RMM:  27    -0.229876552783E+04    0.31742E-05   -0.85295E-06  2412   0.153E-03
   2 F= -.23194627E+04 E0= -.23194514E+04  d E =-.250938E+00  mag=     5.5520
       N       E                     dE             d eps       ncg     rms          rms(c)
DAV:   1    -0.229849304917E+04    0.27248E+00   -0.23122E+01  4584   0.393E+00    0.136E+00
RMM:   2    -0.229889080830E+04   -0.39776E+00   -0.40895E+00  6169   0.880E-01    0.955E-01
RMM:   3    -0.229892179749E+04   -0.30989E-01   -0.40930E-01  5548   0.379E-01    0.115E+00
RMM:   4    -0.229892241522E+04   -0.61773E-03   -0.33246E-02  6158   0.551E-02    0.905E-01
RMM:   5    -0.229892626705E+04   -0.38518E-02   -0.55224E-03  4994   0.312E-02    0.173E+00
RMM:   6    -0.229892648425E+04   -0.21720E-03   -0.84760E-04  3377   0.139E-02    0.167E+00
RMM:   7    -0.229892241229E+04    0.40720E-02   -0.30309E-03  4689   0.228E-02    0.132E+00
RMM:   8    -0.229891861007E+04    0.38022E-02   -0.88304E-03  4633   0.381E-02    0.134E+00
RMM:   9    -0.229891269353E+04    0.59165E-02   -0.16210E-02  4732   0.557E-02    0.171E+00
RMM:  10    -0.229890782127E+04    0.48723E-02   -0.54548E-03  4829   0.349E-02    0.179E+00
RMM:  11    -0.229891199956E+04   -0.41783E-02   -0.20146E-03  4344   0.183E-02    0.174E+00
RMM:  12    -0.229891614675E+04   -0.41472E-02   -0.52357E-02  4900   0.862E-02    0.827E-01
RMM:  13    -0.229891675153E+04   -0.60479E-03   -0.70588E-02  5040   0.106E-01    0.101E+00
RMM:  14    -0.229891566479E+04    0.10867E-02   -0.47615E-03  4928   0.378E-02    0.815E-01
RMM:  15    -0.229891519896E+04    0.46583E-03   -0.36058E-03  4417   0.229E-02    0.518E-01
RMM:  16    -0.229891553853E+04   -0.33957E-03   -0.36882E-03  4115   0.252E-02    0.359E-01
RMM:  17    -0.229891640960E+04   -0.87107E-03   -0.25556E-03  4320   0.204E-02    0.244E-01
RMM:  18    -0.229891701696E+04   -0.60736E-03   -0.10896E-03  4015   0.157E-02    0.212E-01
RMM:  19    -0.229891726923E+04   -0.25228E-03   -0.48302E-04  3747   0.104E-02    0.207E-01
RMM:  20    -0.229891741547E+04   -0.14623E-03   -0.10398E-04  3195   0.691E-03    0.174E-01
RMM:  21    -0.229891744812E+04   -0.32657E-04   -0.39802E-05  2927   0.474E-03    0.160E-01
RMM:  22    -0.229891742257E+04    0.25549E-04   -0.47111E-05  2889   0.451E-03    0.156E-01
RMM:  23    -0.229891739848E+04    0.24093E-04   -0.24663E-05  2859   0.385E-03    0.159E-01
RMM:  24    -0.229891740006E+04   -0.15767E-05   -0.68332E-06  2741   0.279E-03
   3 F= -.23196128E+04 E0= -.23195988E+04  d E =-.401009E+00  mag=     5.2518
       N       E                     dE             d eps       ncg     rms          rms(c)
DAV:   1    -0.229883432608E+04    0.83072E-01   -0.14961E+01  4544   0.408E+00    0.205E+00
RMM:   2    -0.229897297860E+04   -0.13865E+00   -0.14053E+00  5836   0.812E-01    0.211E+00
RMM:   3    -0.229898409043E+04   -0.11112E-01   -0.15532E-01  5484   0.331E-01    0.257E+00
RMM:   4    -0.229895637113E+04    0.27719E-01   -0.22940E-02  5247   0.783E-02    0.190E+00
RMM:   5    -0.229889538319E+04    0.60988E-01   -0.75565E-02  4741   0.126E-01    0.195E+00
RMM:   6    -0.229891069780E+04   -0.15315E-01   -0.65394E-03  4517   0.677E-02    0.237E+00
RMM:   7    -0.229891162171E+04   -0.92391E-03   -0.82908E-03  5310   0.349E-02    0.275E+00
RMM:   8    -0.229891222448E+04   -0.60276E-03   -0.10056E-03  3675   0.125E-02    0.277E+00
RMM:   9    -0.229891568926E+04   -0.34648E-02   -0.36775E-02  4747   0.641E-02    0.149E+00
RMM:  10    -0.229897498994E+04   -0.59301E-01   -0.17242E-01  4754   0.144E-01    0.104E+00
RMM:  11    -0.229899723813E+04   -0.22248E-01   -0.22169E-02  4672   0.655E-02    0.777E-01
RMM:  12    -0.229900839328E+04   -0.11155E-01   -0.13952E-02  4817   0.458E-02    0.610E-01
RMM:  13    -0.229901532376E+04   -0.69305E-02   -0.61303E-03  4763   0.342E-02    0.225E-01
RMM:  14    -0.229901972423E+04   -0.44005E-02   -0.16235E-03  4498   0.186E-02    0.431E-01
RMM:  15    -0.229902265846E+04   -0.29342E-02   -0.94733E-04  3958   0.139E-02    0.297E-01
RMM:  16    -0.229903137014E+04   -0.87117E-02   -0.18620E-03  4100   0.190E-02    0.192E-01
RMM:  17    -0.229903668823E+04   -0.53181E-02   -0.15362E-03  4133   0.189E-02    0.113E-01
RMM:  18    -0.229903998713E+04   -0.32989E-02   -0.93757E-04  4001   0.158E-02    0.719E-02
RMM:  19    -0.229904118838E+04   -0.12013E-02   -0.51468E-04  3794   0.127E-02    0.674E-02
RMM:  20    -0.229904193027E+04   -0.74189E-03   -0.16170E-04  3541   0.705E-03    0.867E-02
RMM:  21    -0.229904300834E+04   -0.10781E-02   -0.22137E-04  3617   0.843E-03    0.316E-02
RMM:  22    -0.229904349674E+04   -0.48840E-03   -0.99731E-05  3445   0.641E-03    0.226E-02
RMM:  23    -0.229904366599E+04   -0.16925E-03   -0.40041E-05  3128   0.483E-03    0.614E-03
RMM:  24    -0.229904371824E+04   -0.52252E-04   -0.13168E-05  2855   0.382E-03    0.475E-03
RMM:  25    -0.229904374113E+04   -0.22880E-04   -0.66875E-06  2629   0.283E-03    0.159E-03
RMM:  26    -0.229904374592E+04   -0.47965E-05   -0.30646E-06  2494   0.234E-03
   4 F= -.23197389E+04 E0= -.23197330E+04  d E =-.126150E+00  mag=     4.0005
       N       E                     dE             d eps       ncg     rms          rms(c)
DAV:   1    -0.229905329718E+04   -0.95561E-02   -0.26406E-01  5344   0.547E-01    0.235E-01
RMM:   2    -0.229905639147E+04   -0.30943E-02   -0.25331E-02  5897   0.111E-01    0.455E-01
RMM:   3    -0.229905571780E+04    0.67367E-03   -0.32105E-03  5310   0.433E-02    0.251E-01
RMM:   4    -0.229905536861E+04    0.34919E-03   -0.39448E-04  4409   0.134E-02    0.785E-02
RMM:   5    -0.229905529845E+04    0.70162E-04   -0.21761E-04  4346   0.123E-02    0.572E-02
RMM:   6    -0.229905529037E+04    0.80780E-05   -0.54557E-05  3206   0.661E-03
   5 F= -.23197505E+04 E0= -.23197446E+04  d E =-.137727E+00  mag=     4.0002
       N       E                     dE             d eps       ncg     rms          rms(c)
DAV:   1    -0.229905596021E+04   -0.66176E-03   -0.11128E+00  4544   0.112E+00    0.480E-01
RMM:   2    -0.229906885751E+04   -0.12897E-01   -0.10739E-01  5899   0.228E-01    0.921E-01
RMM:   3    -0.229906617929E+04    0.26782E-02   -0.13434E-02  5707   0.829E-02    0.519E-01
RMM:   4    -0.229906465755E+04    0.15217E-02   -0.16634E-03  4560   0.270E-02    0.152E-01
RMM:   5    -0.229906439495E+04    0.26259E-03   -0.91271E-04  5233   0.240E-02    0.120E-01
RMM:   6    -0.229906435140E+04    0.43552E-04   -0.23070E-04  5044   0.102E-02    0.776E-02
RMM:   7    -0.229906429668E+04    0.54723E-04   -0.73752E-05  2943   0.631E-03    0.383E-02
RMM:   8    -0.229906428620E+04    0.10482E-04   -0.18013E-05  2859   0.413E-03    0.275E-02
RMM:   9    -0.229906428283E+04    0.33672E-05   -0.10717E-05  2852   0.288E-03
   6 F= -.23197595E+04 E0= -.23197543E+04  d E =-.146779E+00  mag=     4.0001
       N       E                     dE             d eps       ncg     rms          rms(c)
DAV:   1    -0.229880522869E+04    0.25906E+00   -0.15190E+01  4464   0.344E+00    0.138E+00
RMM:   2    -0.229912445085E+04   -0.31922E+00   -0.32119E+00  6209   0.815E-01    0.163E+00
RMM:   3    -0.229914175815E+04   -0.17307E-01   -0.40286E-01  6018   0.333E-01    0.143E+00
RMM:   4    -0.229913211965E+04    0.96385E-02   -0.34685E-02  6074   0.776E-02    0.522E-01
RMM:   5    -0.229913027796E+04    0.18417E-02   -0.69809E-03  5709   0.389E-02    0.470E-01
RMM:   6    -0.229912771151E+04    0.25665E-02   -0.49488E-03  5303   0.358E-02    0.212E-01
RMM:   7    -0.229912730814E+04    0.40337E-03   -0.17083E-03  4827   0.262E-02    0.905E-02
RMM:   8    -0.229912734561E+04   -0.37469E-04   -0.28230E-04  4330   0.138E-02    0.834E-02
RMM:   9    -0.229912734924E+04   -0.36266E-05   -0.76834E-05  3127   0.831E-03
   7 F= -.23198235E+04 E0= -.23198220E+04  d E =-.639423E-01  mag=     4.0000
       N       E                     dE             d eps       ncg     rms          rms(c)
DAV:   1    -0.229912620729E+04    0.11383E-02   -0.60183E-02  5424   0.218E-01    0.961E-02
RMM:   2    -0.229912744936E+04   -0.12421E-02   -0.13106E-02  6210   0.531E-02    0.115E-01
RMM:   3    -0.229912751893E+04   -0.69573E-04   -0.16966E-03  3267   0.213E-02    0.965E-02
RMM:   4    -0.229912747515E+04    0.43787E-04   -0.15880E-04  2889   0.676E-03    0.434E-02
RMM:   5    -0.229912746237E+04    0.12772E-04   -0.37539E-05  2850   0.399E-03    0.302E-02
RMM:   6    -0.229912745087E+04    0.11502E-04   -0.24545E-05  2860   0.368E-03    0.168E-02
RMM:   7    -0.229912744620E+04    0.46685E-05   -0.12915E-05  2860   0.345E-03
   8 F= -.23198236E+04 E0= -.23198223E+04  d E =-.640828E-01  mag=     4.0000
       N       E                     dE             d eps       ncg     rms          rms(c)
DAV:   1    -0.229892745710E+04    0.19999E+00   -0.12233E+01  4464   0.320E+00    0.130E+00
RMM:   2    -0.229918011584E+04   -0.25266E+00   -0.26517E+00  6114   0.755E-01    0.100E+00
RMM:   3    -0.229920603370E+04   -0.25918E-01   -0.33222E-01  5858   0.320E-01    0.118E+00
RMM:   4    -0.229919738374E+04    0.86500E-02   -0.25813E-02  6268   0.699E-02    0.382E-01
RMM:   5    -0.229919627606E+04    0.11077E-02   -0.53678E-03  5352   0.341E-02    0.338E-01
RMM:   6    -0.229919498393E+04    0.12921E-02   -0.34544E-03  5739   0.302E-02    0.167E-01
RMM:   7    -0.229919464956E+04    0.33438E-03   -0.10050E-03  5015   0.200E-02    0.580E-02
RMM:   8    -0.229919463542E+04    0.14139E-04   -0.13612E-04  3963   0.112E-02    0.360E-02
RMM:   9    -0.229919462443E+04    0.10986E-04   -0.38897E-05  3034   0.633E-03    0.260E-02
RMM:  10    -0.229919461125E+04    0.13181E-04   -0.37431E-05  2900   0.465E-03    0.118E-02
RMM:  11    -0.229919461328E+04   -0.20254E-05   -0.80959E-06  2849   0.354E-03
   9 F= -.23198915E+04 E0= -.23198912E+04  d E =-.678522E-01  mag=     4.0000
       N       E                     dE             d eps       ncg     rms          rms(c)
DAV:   1    -0.229918750382E+04    0.71074E-02   -0.40793E-01  5008   0.584E-01    0.236E-01
RMM:   2    -0.229919578499E+04   -0.82812E-02   -0.87364E-02  6127   0.139E-01    0.181E-01
RMM:   3    -0.229919664447E+04   -0.85948E-03   -0.10891E-02  5523   0.575E-02    0.204E-01
RMM:   4    -0.229919636598E+04    0.27849E-03   -0.85797E-04  3483   0.130E-02    0.660E-02
RMM:   5    -0.229919632775E+04    0.38228E-04   -0.19100E-04  3242   0.837E-03    0.584E-02
RMM:   6    -0.229919629127E+04    0.36480E-04   -0.12722E-04  3361   0.762E-03    0.320E-02
RMM:   7    -0.229919628144E+04    0.98252E-05   -0.37641E-05  2934   0.610E-03
  10 F= -.23198932E+04 E0= -.23198930E+04  d E =-.696217E-01  mag=     4.0000
       N       E                     dE             d eps       ncg     rms          rms(c)
DAV:   1    -0.229917523166E+04    0.21060E-01   -0.20230E+00  4480   0.120E+00    0.482E-01
RMM:   2    -0.229922075940E+04   -0.45528E-01   -0.47746E-01  6240   0.308E-01    0.399E-01
RMM:   3    -0.229922490932E+04   -0.41499E-02   -0.53249E-02  5829   0.124E-01    0.415E-01
RMM:   4    -0.229922387415E+04    0.10352E-02   -0.46717E-03  5352   0.274E-02    0.157E-01
RMM:   5    -0.229922358206E+04    0.29208E-03   -0.83721E-04  4959   0.160E-02    0.120E-01
RMM:   6    -0.229922351521E+04    0.66851E-04   -0.63871E-04  4725   0.141E-02    0.992E-02
RMM:   7    -0.229922340759E+04    0.10762E-03   -0.21717E-04  3611   0.978E-03    0.363E-02
RMM:   8    -0.229922339848E+04    0.91178E-05   -0.36565E-05  2878   0.592E-03
  11 F= -.23199203E+04 E0= -.23199201E+04  d E =-.270723E-01  mag=     4.0000
       N       E                     dE             d eps       ncg     rms          rms(c)
DAV:   1    -0.229917671656E+04    0.46691E-01   -0.22885E+00  4512   0.127E+00    0.514E-01
RMM:   2    -0.229922800824E+04   -0.51292E-01   -0.53814E-01  6213   0.325E-01    0.427E-01
RMM:   3    -0.229923275275E+04   -0.47445E-02   -0.60169E-02  5828   0.132E-01    0.448E-01
RMM:   4    -0.229923156403E+04    0.11887E-02   -0.53197E-03  5451   0.290E-02    0.170E-01
RMM:   5    -0.229923124431E+04    0.31972E-03   -0.92441E-04  4969   0.165E-02    0.131E-01
RMM:   6    -0.229923116196E+04    0.82355E-04   -0.70620E-04  4826   0.145E-02    0.111E-01
RMM:   7    -0.229923102886E+04    0.13309E-03   -0.26390E-04  3822   0.104E-02    0.439E-02
RMM:   8    -0.229923101699E+04    0.11876E-04   -0.55039E-05  2905   0.649E-03    0.247E-02
RMM:   9    -0.229923102033E+04   -0.33480E-05   -0.13564E-05  2853   0.451E-03
  12 F= -.23199279E+04 E0= -.23199276E+04  d E =-.346264E-01  mag=     4.0000
       N       E                     dE             d eps       ncg     rms          rms(c)
DAV:   1    -0.229920107978E+04    0.29937E-01   -0.21956E+00  4496   0.135E+00    0.570E-01
RMM:   2    -0.229924699936E+04   -0.45920E-01   -0.47255E-01  6168   0.329E-01    0.569E-01
RMM:   3    -0.229925017173E+04   -0.31724E-02   -0.52372E-02  5800   0.130E-01    0.520E-01
RMM:   4    -0.229924836713E+04    0.18046E-02   -0.46905E-03  5536   0.300E-02    0.165E-01
RMM:   5    -0.229924820399E+04    0.16313E-03   -0.10686E-03  4736   0.163E-02    0.154E-01
RMM:   6    -0.229924791169E+04    0.29230E-03   -0.65917E-04  4911   0.138E-02    0.771E-02
RMM:   7    -0.229924785650E+04    0.55192E-04   -0.18413E-04  3864   0.983E-03    0.436E-02
RMM:   8    -0.229924783879E+04    0.17708E-04   -0.46197E-05  2918   0.593E-03    0.228E-02
RMM:   9    -0.229924783869E+04    0.98604E-07   -0.16956E-05  2871   0.435E-03
  13 F= -.23199446E+04 E0= -.23199443E+04  d E =-.167737E-01  mag=     4.0000
       N       E                     dE             d eps       ncg     rms          rms(c)
DAV:   1    -0.229921331612E+04    0.34523E-01   -0.18337E+00  4496   0.123E+00    0.524E-01
RMM:   2    -0.229925192534E+04   -0.38609E-01   -0.39452E-01  6173   0.300E-01    0.554E-01
RMM:   3    -0.229925432901E+04   -0.24037E-02   -0.43319E-02  5810   0.117E-01    0.491E-01
RMM:   4    -0.229925275733E+04    0.15717E-02   -0.39781E-03  5439   0.275E-02    0.156E-01
RMM:   5    -0.229925261601E+04    0.14132E-03   -0.91306E-04  4530   0.149E-02    0.146E-01
RMM:   6    -0.229925234229E+04    0.27372E-03   -0.57742E-04  4810   0.130E-02    0.701E-02
RMM:   7    -0.229925229931E+04    0.42982E-04   -0.14462E-04  3567   0.928E-03    0.441E-02
RMM:   8    -0.229925228203E+04    0.17278E-04   -0.40857E-05  2895   0.563E-03    0.253E-02
RMM:   9    -0.229925227751E+04    0.45197E-05   -0.22208E-05  2866   0.446E-03
  14 F= -.23199490E+04 E0= -.23199485E+04  d E =-.211339E-01  mag=     4.0000
       N       E                     dE             d eps       ncg     rms          rms(c)
DAV:   1    -0.229924464359E+04    0.76384E-02   -0.10407E+00  4520   0.846E-01    0.378E-01
RMM:   2    -0.229926906830E+04   -0.24425E-01   -0.23905E-01  6323   0.216E-01    0.544E-01
RMM:   3    -0.229926904975E+04    0.18551E-04   -0.23848E-02  5714   0.765E-02    0.316E-01
RMM:   4    -0.229926852038E+04    0.52937E-03   -0.23108E-03  4616   0.188E-02    0.133E-01
RMM:   5    -0.229926842317E+04    0.97210E-04   -0.41721E-04  3179   0.989E-03    0.112E-01
RMM:   6    -0.229926826477E+04    0.15840E-03   -0.34976E-04  4229   0.103E-02    0.474E-02
RMM:   7    -0.229926827434E+04   -0.95712E-05   -0.45554E-05  2882   0.723E-03
  15 F= -.23199651E+04 E0= -.23199646E+04  d E =-.160977E-01  mag=     4.0000
       N       E                     dE             d eps       ncg     rms          rms(c)
DAV:   1    -0.229908897447E+04    0.17929E+00   -0.93607E+00  4448   0.254E+00    0.115E+00
RMM:   2    -0.229931221399E+04   -0.22324E+00   -0.21678E+00  6370   0.638E-01    0.173E+00
RMM:   3    -0.229931010164E+04    0.21123E-02   -0.22102E-01  6004   0.228E-01    0.102E+00
RMM:   4    -0.229930501698E+04    0.50847E-02   -0.20218E-02  5866   0.558E-02    0.423E-01
RMM:   5    -0.229930420486E+04    0.81212E-03   -0.41652E-03  5287   0.268E-02    0.338E-01
RMM:   6    -0.229930284513E+04    0.13597E-02   -0.27334E-03  5245   0.243E-02    0.168E-01
RMM:   7    -0.229930274649E+04    0.98644E-04   -0.62931E-04  4298   0.166E-02    0.102E-01
RMM:   8    -0.229930276867E+04   -0.22184E-04   -0.13248E-04  3350   0.804E-03    0.912E-02
RMM:   9    -0.229930271354E+04    0.55131E-04   -0.20176E-04  3077   0.816E-03    0.378E-02
RMM:  10    -0.229930272515E+04   -0.11612E-04   -0.38514E-05  2863   0.518E-03    0.347E-02
RMM:  11    -0.229930272710E+04   -0.19504E-05   -0.34549E-05  2863   0.458E-03
  16 F= -.23199997E+04 E0= -.23199990E+04  d E =-.506989E-01  mag=     4.0000
       N       E                     dE             d eps       ncg     rms          rms(c)
DAV:   1    -0.229844317505E+04    0.85955E+00   -0.37445E+01  4440   0.508E+00    0.239E+00
RMM:   2    -0.229936785552E+04   -0.92468E+00   -0.88487E+00  6355   0.126E+00    0.375E+00
RMM:   3    -0.229934241694E+04    0.25439E-01   -0.90104E-01  6044   0.459E-01    0.223E+00
RMM:   4    -0.229932045300E+04    0.21964E-01   -0.80978E-02  5838   0.112E-01    0.951E-01
RMM:   5    -0.229931709698E+04    0.33560E-02   -0.17599E-02  5648   0.556E-02    0.695E-01
RMM:   6    -0.229931276627E+04    0.43307E-02   -0.10193E-02  5451   0.446E-02    0.459E-01
RMM:   7    -0.229931151930E+04    0.12470E-02   -0.31974E-03  4750   0.313E-02    0.219E-01
RMM:   8    -0.229931155967E+04   -0.40369E-04   -0.83247E-04  4426   0.183E-02    0.189E-01
RMM:   9    -0.229931135687E+04    0.20280E-03   -0.75131E-04  4076   0.161E-02    0.831E-02
RMM:  10    -0.229931138482E+04   -0.27948E-04   -0.23337E-04  3974   0.105E-02    0.755E-02
RMM:  11    -0.229931139917E+04   -0.14350E-04   -0.12693E-04  2989   0.751E-03    0.547E-02
RMM:  12    -0.229931139561E+04    0.35592E-05   -0.61905E-05  2871   0.503E-03
  17 F= -.23200080E+04 E0= -.23200071E+04  d E =-.589499E-01  mag=     4.0000
       N       E                     dE             d eps       ncg     rms          rms(c)
DAV:   1    -0.229918460301E+04    0.12680E+00   -0.59068E+00  4464   0.201E+00    0.922E-01
RMM:   2    -0.229932715548E+04   -0.14255E+00   -0.13640E+00  6354   0.530E-01    0.158E+00
RMM:   3    -0.229932274756E+04    0.44079E-02   -0.15038E-01  5928   0.190E-01    0.771E-01
RMM:   4    -0.229931999581E+04    0.27517E-02   -0.15326E-02  5742   0.456E-02    0.398E-01
RMM:   5    -0.229931875350E+04    0.12423E-02   -0.26023E-03  4998   0.219E-02    0.290E-01
RMM:   6    -0.229931775004E+04    0.10035E-02   -0.25896E-03  4756   0.237E-02    0.144E-01
RMM:   7    -0.229931776395E+04   -0.13906E-04   -0.33271E-04  3746   0.170E-02    0.105E-01
RMM:   8    -0.229931774681E+04    0.17141E-04   -0.97810E-05  2901   0.518E-03    0.891E-02
RMM:   9    -0.229931769030E+04    0.56507E-04   -0.25739E-04  3006   0.682E-03    0.433E-02
RMM:  10    -0.229931770333E+04   -0.13031E-04   -0.41166E-05  2874   0.484E-03    0.281E-02
RMM:  11    -0.229931770127E+04    0.20657E-05   -0.25017E-05  2859   0.359E-03
  18 F= -.23200145E+04 E0= -.23200137E+04  d E =-.655368E-01  mag=     4.0000
       N       E                     dE             d eps       ncg     rms          rms(c)
DAV:   1    -0.229931293251E+04    0.47708E-02   -0.69210E-01  4512   0.645E-01    0.314E-01
RMM:   2    -0.229933066829E+04   -0.17736E-01   -0.16885E-01  6442   0.170E-01    0.521E-01
RMM:   3    -0.229933011246E+04    0.55582E-03   -0.17524E-02  5473   0.605E-02    0.251E-01
RMM:   4    -0.229932987266E+04    0.23981E-03   -0.17304E-03  3477   0.146E-02    0.134E-01
RMM:   5    -0.229932973741E+04    0.13525E-03   -0.26053E-04  2905   0.757E-03    0.858E-02
RMM:   6    -0.229932963614E+04    0.10127E-03   -0.23308E-04  3472   0.706E-03    0.462E-02
RMM:   7    -0.229932963540E+04    0.73649E-06   -0.40501E-05  2851   0.590E-03
  19 F= -.23200264E+04 E0= -.23200256E+04  d E =-.118961E-01  mag=     4.0000
       N       E                     dE             d eps       ncg     rms          rms(c)
DAV:   1    -0.229921080550E+04    0.11883E+00   -0.62266E+00  4448   0.194E+00    0.937E-01
RMM:   2    -0.229936896784E+04   -0.15816E+00   -0.15206E+00  6446   0.502E-01    0.148E+00
RMM:   3    -0.229936639326E+04    0.25746E-02   -0.16261E-01  5946   0.185E-01    0.785E-01
RMM:   4    -0.229936407911E+04    0.23142E-02   -0.14961E-02  5670   0.430E-02    0.409E-01
RMM:   5    -0.229936295558E+04    0.11235E-02   -0.25357E-03  4720   0.190E-02    0.259E-01
RMM:   6    -0.229936212048E+04    0.83510E-03   -0.16900E-03  4776   0.169E-02    0.142E-01
RMM:   7    -0.229936204355E+04    0.76926E-04   -0.40908E-04  3867   0.141E-02    0.711E-02
RMM:   8    -0.229936206281E+04   -0.19259E-04   -0.90195E-05  3016   0.598E-03    0.655E-02
RMM:   9    -0.229936203874E+04    0.24069E-04   -0.68132E-05  2872   0.523E-03    0.330E-02
RMM:  10    -0.229936203800E+04    0.73834E-06   -0.32178E-05  2870   0.381E-03
  20 F= -.23200586E+04 E0= -.23200578E+04  d E =-.440781E-01  mag=     4.0000
       N       E                     dE             d eps       ncg     rms          rms(c)
DAV:   1    -0.229879494092E+04    0.56710E+00   -0.24873E+01  4440   0.388E+00    0.188E+00
RMM:   2    -0.229942969384E+04   -0.63475E+00   -0.61618E+00  6458   0.986E-01    0.282E+00
RMM:   3    -0.229942954855E+04    0.14529E-03   -0.68722E-01  5973   0.378E-01    0.163E+00
RMM:   4    -0.229941841194E+04    0.11137E-01   -0.59239E-02  5977   0.870E-02    0.826E-01
RMM:   5    -0.229941428926E+04    0.41227E-02   -0.10242E-02  5587   0.369E-02    0.520E-01
RMM:   6    -0.229941134308E+04    0.29462E-02   -0.59573E-03  5227   0.306E-02    0.317E-01
RMM:   7    -0.229941072627E+04    0.61681E-03   -0.18717E-03  4693   0.246E-02    0.128E-01
RMM:   8    -0.229941078181E+04   -0.55535E-04   -0.47583E-04  4181   0.123E-02    0.109E-01
RMM:   9    -0.229941072237E+04    0.59439E-04   -0.19169E-04  3125   0.975E-03    0.544E-02
RMM:  10    -0.229941072026E+04    0.21017E-05   -0.95165E-05  2978   0.595E-03
  21 F= -.23201064E+04 E0= -.23201059E+04  d E =-.918545E-01  mag=     4.0000
       N       E                     dE             d eps       ncg     rms          rms(c)
DAV:   1    -0.229685413704E+04    0.25566E+01   -0.99643E+01  4440   0.779E+00    0.363E+00
RMM:   2    -0.229953324188E+04   -0.26791E+01   -0.25567E+01  6485   0.197E+00    0.656E+00
RMM:   3    -0.229948184294E+04    0.51399E-01   -0.28860E+00  5906   0.796E-01    0.308E+00
RMM:   4    -0.229945770439E+04    0.24139E-01   -0.24641E-01  5960   0.185E-01    0.209E+00
RMM:   5    -0.229944670040E+04    0.11004E-01   -0.64089E-02  5947   0.961E-02    0.129E+00
RMM:   6    -0.229943714387E+04    0.95565E-02   -0.26354E-02  5536   0.627E-02    0.718E-01
RMM:   7    -0.229943181102E+04    0.53328E-02   -0.11810E-02  5288   0.445E-02    0.474E-01
RMM:   8    -0.229943075339E+04    0.10576E-02   -0.71044E-03  5196   0.423E-02    0.311E-01
RMM:   9    -0.229943051426E+04    0.23913E-03   -0.18167E-03  5184   0.233E-02    0.160E-01
RMM:  10    -0.229943038704E+04    0.12721E-03   -0.29508E-04  4004   0.117E-02    0.538E-02
RMM:  11    -0.229943037453E+04    0.12519E-04   -0.11588E-04  3214   0.667E-03    0.331E-02
RMM:  12    -0.229943038131E+04   -0.67869E-05   -0.28029E-05  2876   0.481E-03
  22 F= -.23201226E+04 E0= -.23201225E+04  d E =-.108055E+00  mag=     4.0000
       N       E                     dE             d eps       ncg     rms          rms(c)
DAV:   1    -0.229906030270E+04    0.37007E+00   -0.15074E+01  4448   0.301E+00    0.143E+00
RMM:   2    -0.229945684313E+04   -0.39654E+00   -0.38508E+00  6464   0.834E-01    0.227E+00
RMM:   3    -0.229944546183E+04    0.11381E-01   -0.43527E-01  5794   0.313E-01    0.100E+00
RMM:   4    -0.229944192992E+04    0.35319E-02   -0.41071E-02  5874   0.683E-02    0.605E-01
RMM:   5    -0.229943903643E+04    0.28935E-02   -0.54848E-03  5258   0.277E-02    0.417E-01
RMM:   6    -0.229943680036E+04    0.22361E-02   -0.51589E-03  5009   0.289E-02    0.224E-01
RMM:   7    -0.229943658127E+04    0.21909E-03   -0.13543E-03  4292   0.241E-02    0.102E-01
RMM:   8    -0.229943651923E+04    0.62036E-04   -0.25187E-04  3683   0.900E-03    0.650E-02
RMM:   9    -0.229943651539E+04    0.38475E-05   -0.94446E-05  2939   0.702E-03
  23 F= -.23201303E+04 E0= -.23201301E+04  d E =-.115772E+00  mag=     4.0000
       N       E                     dE             d eps       ncg     rms          rms(c)
DAV:   1    -0.229918266387E+04    0.25386E+00   -0.11468E+01  4432   0.261E+00    0.126E+00
RMM:   2    -0.229948336696E+04   -0.30070E+00   -0.29449E+00  6417   0.693E-01    0.174E+00
RMM:   3    -0.229948638783E+04   -0.30209E-02   -0.34653E-01  6102   0.269E-01    0.953E-01
RMM:   4    -0.229948141268E+04    0.49751E-02   -0.28142E-02  5801   0.595E-02    0.556E-01
RMM:   5    -0.229947949703E+04    0.19157E-02   -0.45755E-03  5345   0.266E-02    0.367E-01
RMM:   6    -0.229947785945E+04    0.16376E-02   -0.31474E-03  4980   0.245E-02    0.189E-01
RMM:   7    -0.229947761882E+04    0.24062E-03   -0.84160E-04  4423   0.202E-02    0.705E-02
RMM:   8    -0.229947759833E+04    0.20494E-04   -0.25107E-04  4113   0.975E-03    0.399E-02
RMM:   9    -0.229947759129E+04    0.70417E-05   -0.37196E-05  2917   0.751E-03
  24 F= -.23201699E+04 E0= -.23201698E+04  d E =-.396167E-01  mag=     4.0000
       N       E                     dE             d eps       ncg     rms          rms(c)
DAV:   1    -0.229907588796E+04    0.40171E+00   -0.16631E+01  4472   0.312E+00    0.149E+00
RMM:   2    -0.229950214054E+04   -0.42625E+00   -0.41954E+00  6418   0.821E-01    0.203E+00
RMM:   3    -0.229950905950E+04   -0.69190E-02   -0.49430E-01  6118   0.326E-01    0.115E+00
RMM:   4    -0.229950114127E+04    0.79182E-02   -0.40851E-02  5827   0.730E-02    0.644E-01
RMM:   5    -0.229949869340E+04    0.24479E-02   -0.65620E-03  5476   0.318E-02    0.445E-01
RMM:   6    -0.229949637965E+04    0.23138E-02   -0.43889E-03  5083   0.289E-02    0.225E-01
RMM:   7    -0.229949606065E+04    0.31900E-03   -0.12228E-03  4622   0.234E-02    0.877E-02
RMM:   8    -0.229949603316E+04    0.27490E-04   -0.36266E-04  4371   0.118E-02    0.467E-02
RMM:   9    -0.229949602766E+04    0.55003E-05   -0.51895E-05  3087   0.846E-03
  25 F= -.23201863E+04 E0= -.23201863E+04  d E =-.560374E-01  mag=     4.0000
       N       E                     dE             d eps       ncg     rms          rms(c)
DAV:   1    -0.229943843679E+04    0.57596E-01   -0.33014E+00  4544   0.143E+00    0.624E-01
RMM:   2    -0.229951748793E+04   -0.79051E-01   -0.78947E-01  6415   0.366E-01    0.785E-01
RMM:   3    -0.229951966910E+04   -0.21812E-02   -0.86363E-02  5993   0.142E-01    0.457E-01
RMM:   4    -0.229951827241E+04    0.13967E-02   -0.77354E-03  5414   0.316E-02    0.227E-01
RMM:   5    -0.229951806462E+04    0.20779E-03   -0.11033E-03  4159   0.142E-02    0.218E-01
RMM:   6    -0.229951754248E+04    0.52214E-03   -0.83120E-04  4810   0.139E-02    0.874E-02
RMM:   7    -0.229951749858E+04    0.43895E-04   -0.26660E-04  3967   0.114E-02    0.383E-02
RMM:   8    -0.229951749115E+04    0.74318E-05   -0.49793E-05  2968   0.611E-03
  26 F= -.23202066E+04 E0= -.23202066E+04  d E =-.202584E-01  mag=     4.0000
       N       E                     dE             d eps       ncg     rms          rms(c)
DAV:   1    -0.229930785538E+04    0.20964E+00   -0.91899E+00  4448   0.238E+00    0.104E+00
RMM:   2    -0.229952780697E+04   -0.21995E+00   -0.21907E+00  6421   0.602E-01    0.135E+00
RMM:   3    -0.229953503487E+04   -0.72279E-02   -0.25206E-01  6106   0.235E-01    0.826E-01
RMM:   4    -0.229953053995E+04    0.44949E-02   -0.21808E-02  5770   0.529E-02    0.426E-01
RMM:   5    -0.229952970036E+04    0.83958E-03   -0.32434E-03  5230   0.230E-02    0.358E-01
RMM:   6    -0.229952827623E+04    0.14241E-02   -0.23565E-03  5174   0.217E-02    0.153E-01
RMM:   7    -0.229952812183E+04    0.15440E-03   -0.82115E-04  4591   0.173E-02    0.735E-02
RMM:   8    -0.229952809032E+04    0.31510E-04   -0.15839E-04  3894   0.972E-03    0.331E-02
RMM:   9    -0.229952809649E+04   -0.61616E-05   -0.31543E-05  2893   0.646E-03
  27 F= -.23202151E+04 E0= -.23202150E+04  d E =-.287460E-01  mag=     4.0000
       N       E                     dE             d eps       ncg     rms          rms(c)
DAV:   1    -0.229951807145E+04    0.10019E-01   -0.43559E-01  4616   0.516E-01    0.227E-01
RMM:   2    -0.229952855383E+04   -0.10482E-01   -0.10267E-01  6421   0.134E-01    0.310E-01
RMM:   3    -0.229952866609E+04   -0.11225E-03   -0.11633E-02  5294   0.516E-02    0.154E-01
RMM:   4    -0.229952851670E+04    0.14939E-03   -0.10358E-03  3102   0.115E-02    0.766E-02
RMM:   5    -0.229952849039E+04    0.26315E-04   -0.13811E-04  2881   0.619E-03    0.802E-02
RMM:   6    -0.229952841834E+04    0.72043E-04   -0.12282E-04  3004   0.627E-03    0.321E-02
RMM:   7    -0.229952841546E+04    0.28867E-05   -0.40790E-05  2881   0.562E-03
  28 F= -.23202159E+04 E0= -.23202158E+04  d E =-.295362E-01  mag=     4.0000
       N       E                     dE             d eps       ncg     rms          rms(c)
DAV:   1    -0.229951840013E+04    0.10018E-01   -0.17422E+00  4464   0.133E+00    0.400E-01
RMM:   2    -0.229954069879E+04   -0.22299E-01   -0.23347E-01  5951   0.264E-01    0.326E-01
RMM:   3    -0.229954281189E+04   -0.21131E-02   -0.24174E-02  5619   0.104E-01    0.402E-01
RMM:   4    -0.229954173687E+04    0.10750E-02   -0.23829E-03  5348   0.240E-02    0.117E-01
RMM:   5    -0.229954171481E+04    0.22060E-04   -0.66127E-04  4606   0.150E-02    0.144E-01
RMM:   6    -0.229954152235E+04    0.19246E-03   -0.35380E-04  4244   0.114E-02    0.550E-02
RMM:   7    -0.229954149827E+04    0.24075E-04   -0.86357E-05  3542   0.812E-03    0.229E-02
RMM:   8    -0.229954149213E+04    0.61451E-05   -0.20431E-05  2867   0.576E-03
  29 F= -.23202284E+04 E0= -.23202284E+04  d E =-.125496E-01  mag=     4.0000
       N       E                     dE             d eps       ncg     rms          rms(c)
DAV:   1    -0.229936322897E+04    0.17827E+00   -0.13778E+01  4448   0.376E+00    0.113E+00
RMM:   2    -0.229954050328E+04   -0.17727E+00   -0.18584E+00  5977   0.737E-01    0.937E-01
RMM:   3    -0.229955868364E+04   -0.18180E-01   -0.20359E-01  5721   0.300E-01    0.120E+00
RMM:   4    -0.229954928471E+04    0.93989E-02   -0.19177E-02  6116   0.679E-02    0.318E-01
RMM:   5    -0.229954855638E+04    0.72833E-03   -0.49891E-03  4954   0.388E-02    0.320E-01
RMM:   6    -0.229954789825E+04    0.65813E-03   -0.25520E-03  5492   0.280E-02    0.221E-01
RMM:   7    -0.229954745143E+04    0.44682E-03   -0.75685E-04  4657   0.185E-02    0.683E-02
RMM:   8    -0.229954739946E+04    0.51977E-04   -0.15700E-04  3873   0.126E-02    0.329E-02
RMM:   9    -0.229954738922E+04    0.10237E-04   -0.58282E-05  3422   0.593E-03    0.213E-02
RMM:  10    -0.229954738888E+04    0.34100E-06   -0.10943E-05  2860   0.447E-03
  30 F= -.23202328E+04 E0= -.23202327E+04  d E =-.168910E-01  mag=     4.0000
       N       E                     dE             d eps       ncg     rms          rms(c)
DAV:   1    -0.229952207164E+04    0.25318E-01   -0.21313E+00  4464   0.148E+00    0.443E-01
RMM:   2    -0.229954949447E+04   -0.27423E-01   -0.28602E-01  5975   0.296E-01    0.380E-01
RMM:   3    -0.229955198469E+04   -0.24902E-02   -0.31504E-02  5679   0.117E-01    0.421E-01
RMM:   4    -0.229955081797E+04    0.11667E-02   -0.29839E-03  5484   0.263E-02    0.151E-01
RMM:   5    -0.229955075566E+04    0.62310E-04   -0.74562E-04  4503   0.151E-02    0.160E-01
RMM:   6    -0.229955053463E+04    0.22103E-03   -0.51494E-04  4474   0.132E-02    0.699E-02
RMM:   7    -0.229955048716E+04    0.47471E-04   -0.14440E-04  3951   0.983E-03    0.297E-02
RMM:   8    -0.229955047869E+04    0.84653E-05   -0.31279E-05  2885   0.598E-03
  31 F= -.23202365E+04 E0= -.23202364E+04  d E =-.206053E-01  mag=     4.0000
       N       E                     dE             d eps       ncg     rms          rms(c)
DAV:   1    -0.229954811175E+04    0.23754E-02   -0.86566E-01  4480   0.932E-01    0.251E-01
RMM:   2    -0.229955893041E+04   -0.10819E-01   -0.11329E-01  6090   0.177E-01    0.217E-01
RMM:   3    -0.229956004842E+04   -0.11180E-02   -0.12260E-02  5579   0.677E-02    0.269E-01
RMM:   4    -0.229955961131E+04    0.43711E-03   -0.11268E-03  3753   0.153E-02    0.720E-02
RMM:   5    -0.229955953346E+04    0.77851E-04   -0.20241E-04  3770   0.956E-03    0.377E-02
RMM:   6    -0.229955952590E+04    0.75620E-05   -0.81270E-05  3522   0.788E-03
  32 F= -.23202453E+04 E0= -.23202452E+04  d E =-.882172E-02  mag=     4.0000
       N       E                     dE             d eps       ncg     rms          rms(c)
DAV:   1    -0.229947626043E+04    0.83273E-01   -0.77705E+00  4448   0.279E+00    0.754E-01
RMM:   2    -0.229957379141E+04   -0.97531E-01   -0.10242E+00  6041   0.529E-01    0.629E-01
RMM:   3    -0.229958414611E+04   -0.10355E-01   -0.11436E-01  5743   0.207E-01    0.788E-01
RMM:   4    -0.229958050891E+04    0.36372E-02   -0.10316E-02  5902   0.450E-02    0.224E-01
RMM:   5    -0.229957995275E+04    0.55616E-03   -0.16399E-03  4698   0.228E-02    0.160E-01
RMM:   6    -0.229958001188E+04   -0.59130E-04   -0.12292E-03  5117   0.196E-02    0.186E-01
RMM:   7    -0.229957967973E+04    0.33215E-03   -0.39870E-04  4613   0.132E-02    0.428E-02
RMM:   8    -0.229957967284E+04    0.68931E-05   -0.55036E-05  2989   0.706E-03
  33 F= -.23202648E+04 E0= -.23202647E+04  d E =-.282670E-01  mag=     4.0000
       N       E                     dE             d eps       ncg     rms          rms(c)
DAV:   1    -0.229917037105E+04    0.40931E+00   -0.31097E+01  4448   0.558E+00    0.152E+00
RMM:   2    -0.229956930656E+04   -0.39894E+00   -0.41658E+00  6075   0.106E+00    0.136E+00
RMM:   3    -0.229960688872E+04   -0.37582E-01   -0.46480E-01  5799   0.415E-01    0.154E+00
RMM:   4    -0.229959301836E+04    0.13870E-01   -0.41615E-02  6066   0.908E-02    0.499E-01
RMM:   5    -0.229959191204E+04    0.11063E-02   -0.69332E-03  5173   0.419E-02    0.452E-01
RMM:   6    -0.229959007592E+04    0.18361E-02   -0.56725E-03  5441   0.377E-02    0.305E-01
RMM:   7    -0.229958925293E+04    0.82299E-03   -0.18217E-03  4968   0.283E-02    0.976E-02
RMM:   8    -0.229958922935E+04    0.23581E-04   -0.26717E-04  4364   0.150E-02    0.507E-02
RMM:   9    -0.229958921413E+04    0.15225E-04   -0.90608E-05  3322   0.738E-03    0.208E-02
RMM:  10    -0.229958922182E+04   -0.76935E-05   -0.17895E-05  2857   0.514E-03
  34 F= -.23202728E+04 E0= -.23202727E+04  d E =-.363010E-01  mag=     4.0000
       N       E                     dE             d eps       ncg     rms          rms(c)
DAV:   1    -0.229955512923E+04    0.34085E-01   -0.26592E+00  4464   0.163E+00    0.437E-01
RMM:   2    -0.229958856048E+04   -0.33431E-01   -0.35137E-01  6055   0.318E-01    0.353E-01
RMM:   3    -0.229959197192E+04   -0.34114E-02   -0.39269E-02  5699   0.121E-01    0.423E-01
RMM:   4    -0.229959091987E+04    0.10521E-02   -0.34613E-03  5306   0.258E-02    0.148E-01
RMM:   5    -0.229959075889E+04    0.16098E-03   -0.67227E-04  4262   0.141E-02    0.123E-01
RMM:   6    -0.229959067777E+04    0.81124E-04   -0.45527E-04  4119   0.122E-02    0.948E-02
RMM:   7    -0.229959058251E+04    0.95258E-04   -0.17747E-04  3964   0.951E-03    0.280E-02
RMM:   8    -0.229959057615E+04    0.63544E-05   -0.30012E-05  2881   0.638E-03
  35 F= -.23202746E+04 E0= -.23202745E+04  d E =-.381134E-01  mag=     4.0000
       N       E                     dE             d eps       ncg     rms          rms(c)
DAV:   1    -0.229954878941E+04    0.41793E-01   -0.35500E+00  4432   0.185E+00    0.550E-01
RMM:   2    -0.229960101872E+04   -0.52229E-01   -0.54735E-01  6029   0.373E-01    0.442E-01
RMM:   3    -0.229960647162E+04   -0.54529E-02   -0.60175E-02  5738   0.147E-01    0.558E-01
RMM:   4    -0.229960444455E+04    0.20271E-02   -0.52949E-03  5653   0.329E-02    0.160E-01
RMM:   5    -0.229960428686E+04    0.15770E-03   -0.12047E-03  4888   0.195E-02    0.162E-01
RMM:   6    -0.229960407734E+04    0.20951E-03   -0.56231E-04  4538   0.136E-02    0.924E-02
RMM:   7    -0.229960400668E+04    0.70661E-04   -0.17087E-04  4033   0.961E-03    0.237E-02
RMM:   8    -0.229960400200E+04    0.46808E-05   -0.27581E-05  2894   0.721E-03
  36 F= -.23202870E+04 E0= -.23202869E+04  d E =-.124290E-01  mag=     4.0000
       N       E                     dE             d eps       ncg     rms          rms(c)
DAV:   1    -0.229956417193E+04    0.39835E-01   -0.28219E+00  4448   0.165E+00    0.490E-01
RMM:   2    -0.229960579878E+04   -0.41627E-01   -0.43616E-01  6036   0.333E-01    0.397E-01
RMM:   3    -0.229961001704E+04   -0.42183E-02   -0.47159E-02  5726   0.129E-01    0.488E-01
RMM:   4    -0.229960844733E+04    0.15697E-02   -0.41941E-03  5527   0.292E-02    0.144E-01
RMM:   5    -0.229960835424E+04    0.93091E-04   -0.97752E-04  4814   0.176E-02    0.154E-01
RMM:   6    -0.229960815039E+04    0.20385E-03   -0.45292E-04  4378   0.123E-02    0.768E-02
RMM:   7    -0.229960810578E+04    0.44611E-04   -0.13632E-04  3910   0.887E-03    0.232E-02
RMM:   8    -0.229960810106E+04    0.47191E-05   -0.23716E-05  2880   0.661E-03
  37 F= -.23202902E+04 E0= -.23202901E+04  d E =-.156269E-01  mag=     4.0000
       N       E                     dE             d eps       ncg     rms          rms(c)
DAV:   1    -0.229958415493E+04    0.23951E-01   -0.16707E+00  4496   0.124E+00    0.414E-01
RMM:   2    -0.229961535191E+04   -0.31197E-01   -0.31541E-01  6117   0.262E-01    0.472E-01
RMM:   3    -0.229961702298E+04   -0.16711E-02   -0.34683E-02  5794   0.102E-01    0.347E-01
RMM:   4    -0.229961610839E+04    0.91458E-03   -0.28024E-03  5135   0.225E-02    0.133E-01
RMM:   5    -0.229961607540E+04    0.32987E-04   -0.53261E-04  3555   0.122E-02    0.147E-01
RMM:   6    -0.229961583220E+04    0.24321E-03   -0.37255E-04  4376   0.115E-02    0.512E-02
RMM:   7    -0.229961581273E+04    0.19461E-04   -0.11304E-04  3664   0.997E-03    0.189E-02
RMM:   8    -0.229961580999E+04    0.27481E-05   -0.21305E-05  2876   0.482E-03
  38 F= -.23202970E+04 E0= -.23202969E+04  d E =-.676803E-02  mag=     4.0000
       N       E                     dE             d eps       ncg     rms          rms(c)
DAV:   1    -0.229958357279E+04    0.32240E-01   -0.18769E+00  4416   0.131E+00    0.439E-01
RMM:   2    -0.229961867052E+04   -0.35098E-01   -0.35461E-01  6112   0.277E-01    0.502E-01
RMM:   3    -0.229962055743E+04   -0.18869E-02   -0.38968E-02  5816   0.106E-01    0.370E-01
RMM:   4    -0.229961950784E+04    0.10496E-02   -0.31569E-03  5173   0.237E-02    0.140E-01
RMM:   5    -0.229961947122E+04    0.36617E-04   -0.60044E-04  3736   0.128E-02    0.157E-01
RMM:   6    -0.229961919468E+04    0.27654E-03   -0.41998E-04  4431   0.120E-02    0.550E-02
RMM:   7    -0.229961916953E+04    0.25151E-04   -0.13017E-04  3822   0.104E-02    0.200E-02
RMM:   8    -0.229961916559E+04    0.39380E-05   -0.23684E-05  2891   0.493E-03
  39 F= -.23202994E+04 E0= -.23202993E+04  d E =-.912135E-02  mag=     4.0000
       N       E                     dE             d eps       ncg     rms          rms(c)
DAV:   1    -0.229959272665E+04    0.26443E-01   -0.19008E+00  4448   0.130E+00    0.454E-01
RMM:   2    -0.229962986154E+04   -0.37135E-01   -0.35853E-01  6159   0.274E-01    0.674E-01
RMM:   3    -0.229962898530E+04    0.87623E-03   -0.37276E-02  5874   0.104E-01    0.319E-01
RMM:   4    -0.229962835727E+04    0.62803E-03   -0.35575E-03  4906   0.232E-02    0.158E-01
RMM:   5    -0.229962825404E+04    0.10324E-03   -0.49916E-04  3273   0.121E-02    0.149E-01
RMM:   6    -0.229962801838E+04    0.23565E-03   -0.47588E-04  4396   0.122E-02    0.780E-02
RMM:   7    -0.229962797595E+04    0.42434E-04   -0.14545E-04  3441   0.114E-02    0.171E-02
RMM:   8    -0.229962797574E+04    0.21097E-06   -0.23817E-05  2891   0.443E-03
  40 F= -.23203074E+04 E0= -.23203073E+04  d E =-.804640E-02  mag=     4.0000
       N       E                     dE             d eps       ncg     rms          rms(c)
DAV:   1    -0.229950299354E+04    0.12498E+00   -0.70702E+00  4448   0.251E+00    0.863E-01
RMM:   2    -0.229963960917E+04   -0.13662E+00   -0.13349E+00  6181   0.522E-01    0.123E+00
RMM:   3    -0.229964005181E+04   -0.44264E-03   -0.14634E-01  6018   0.200E-01    0.677E-01
RMM:   4    -0.229963668232E+04    0.33695E-02   -0.12920E-02  5371   0.451E-02    0.300E-01
RMM:   5    -0.229963638197E+04    0.30036E-03   -0.20494E-03  4847   0.217E-02    0.296E-01
RMM:   6    -0.229963546415E+04    0.91781E-03   -0.17406E-03  4638   0.213E-02    0.145E-01
RMM:   7    -0.229963531398E+04    0.15017E-03   -0.48087E-04  4251   0.186E-02    0.330E-02
RMM:   8    -0.229963531408E+04   -0.10472E-06   -0.86795E-05  3573   0.710E-03
  41 F= -.23203132E+04 E0= -.23203132E+04  d E =-.138950E-01  mag=     4.0000
       N       E                     dE             d eps       ncg     rms          rms(c)
DAV:   1    -0.229961284851E+04    0.22465E-01   -0.16554E+00  4512   0.122E+00    0.438E-01
RMM:   2    -0.229964503715E+04   -0.32189E-01   -0.31001E-01  6165   0.256E-01    0.665E-01
RMM:   3    -0.229964395014E+04    0.10870E-02   -0.31161E-02  5900   0.957E-02    0.300E-01
RMM:   4    -0.229964337647E+04    0.57367E-03   -0.30415E-03  4818   0.219E-02    0.132E-01
RMM:   5    -0.229964333499E+04    0.41474E-04   -0.47356E-04  3403   0.119E-02    0.141E-01
RMM:   6    -0.229964314922E+04    0.18577E-03   -0.38033E-04  4297   0.113E-02    0.806E-02
RMM:   7    -0.229964311178E+04    0.37436E-04   -0.12734E-04  3160   0.107E-02    0.165E-02
RMM:   8    -0.229964311225E+04   -0.47054E-06   -0.19704E-05  2886   0.431E-03
  42 F= -.23203205E+04 E0= -.23203205E+04  d E =-.727517E-02  mag=     4.0000
       N       E                     dE             d eps       ncg     rms          rms(c)
DAV:   1    -0.229953482321E+04    0.10829E+00   -0.62352E+00  4448   0.237E+00    0.838E-01
RMM:   2    -0.229965456954E+04   -0.11975E+00   -0.11670E+00  6139   0.495E-01    0.122E+00
RMM:   3    -0.229965341444E+04    0.11551E-02   -0.12454E-01  5983   0.191E-01    0.616E-01
RMM:   4    -0.229965055332E+04    0.28611E-02   -0.11230E-02  5385   0.430E-02    0.246E-01
RMM:   5    -0.229965044435E+04    0.10897E-03   -0.18665E-03  4943   0.217E-02    0.279E-01
RMM:   6    -0.229964971151E+04    0.73284E-03   -0.13634E-03  4769   0.192E-02    0.149E-01
RMM:   7    -0.229964957368E+04    0.13783E-03   -0.42236E-04  4213   0.165E-02    0.317E-02
RMM:   8    -0.229964957212E+04    0.15564E-05   -0.69911E-05  3170   0.617E-03
  43 F= -.23203260E+04 E0= -.23203259E+04  d E =-.127161E-01  mag=     4.0000
       N       E                     dE             d eps       ncg     rms          rms(c)
DAV:   1    -0.229960471481E+04    0.44859E-01   -0.27502E+00  4464   0.153E+00    0.564E-01
RMM:   2    -0.229965963670E+04   -0.54922E-01   -0.54723E-01  6191   0.337E-01    0.773E-01
RMM:   3    -0.229966048521E+04   -0.84851E-03   -0.54425E-02  5986   0.126E-01    0.434E-01
RMM:   4    -0.229965922115E+04    0.12641E-02   -0.53039E-03  5151   0.299E-02    0.142E-01
RMM:   5    -0.229965908798E+04    0.13316E-03   -0.82850E-04  4814   0.171E-02    0.141E-01
RMM:   6    -0.229965898472E+04    0.10326E-03   -0.49018E-04  4707   0.120E-02    0.111E-01
RMM:   7    -0.229965890016E+04    0.84569E-04   -0.15611E-04  3435   0.905E-03    0.227E-02
RMM:   8    -0.229965889757E+04    0.25906E-05   -0.24738E-05  2892   0.548E-03
  44 F= -.23203345E+04 E0= -.23203345E+04  d E =-.856629E-02  mag=     4.0000
       N       E                     dE             d eps       ncg     rms          rms(c)
DAV:   1    -0.229962176062E+04    0.37140E-01   -0.20316E+00  4480   0.131E+00    0.484E-01
RMM:   2    -0.229966240022E+04   -0.40640E-01   -0.40423E-01  6253   0.291E-01    0.665E-01
RMM:   3    -0.229966285637E+04   -0.45615E-03   -0.39647E-02  5986   0.109E-01    0.364E-01
RMM:   4    -0.229966197004E+04    0.88632E-03   -0.39247E-03  5023   0.257E-02    0.122E-01
RMM:   5    -0.229966188204E+04    0.88001E-04   -0.60410E-04  4537   0.149E-02    0.128E-01
RMM:   6    -0.229966177813E+04    0.10392E-03   -0.37879E-04  4337   0.108E-02    0.911E-02
RMM:   7    -0.229966172085E+04    0.57277E-04   -0.11532E-04  3223   0.852E-03    0.189E-02
RMM:   8    -0.229966171858E+04    0.22708E-05   -0.19667E-05  2886   0.516E-03
  45 F= -.23203367E+04 E0= -.23203367E+04  d E =-.107360E-01  mag=     4.0000
       N       E                     dE             d eps       ncg     rms          rms(c)
DAV:   1    -0.229960928861E+04    0.52432E-01   -0.28133E+00  4448   0.150E+00    0.578E-01
RMM:   2    -0.229966829229E+04   -0.59004E-01   -0.60385E-01  6305   0.344E-01    0.658E-01
RMM:   3    -0.229967238393E+04   -0.40916E-02   -0.64036E-02  6040   0.133E-01    0.526E-01
RMM:   4    -0.229967063806E+04    0.17459E-02   -0.60569E-03  5425   0.309E-02    0.146E-01
RMM:   5    -0.229967055408E+04    0.83983E-04   -0.78837E-04  4567   0.149E-02    0.149E-01
RMM:   6    -0.229967040038E+04    0.15370E-03   -0.61220E-04  4512   0.125E-02    0.995E-02
RMM:   7    -0.229967031998E+04    0.80396E-04   -0.17160E-04  3828   0.970E-03    0.291E-02
RMM:   8    -0.229967031587E+04    0.41107E-05   -0.24639E-05  2868   0.561E-03
  46 F= -.23203443E+04 E0= -.23203443E+04  d E =-.760677E-02  mag=     4.0000
       N       E                     dE             d eps       ncg     rms          rms(c)
DAV:   1    -0.229957693079E+04    0.93389E-01   -0.44525E+00  4448   0.189E+00    0.726E-01
RMM:   2    -0.229967023716E+04   -0.93306E-01   -0.95654E-01  6314   0.433E-01    0.822E-01
RMM:   3    -0.229967728061E+04   -0.70434E-02   -0.10454E-01  6078   0.168E-01    0.680E-01
RMM:   4    -0.229967433091E+04    0.29497E-02   -0.95668E-03  5633   0.391E-02    0.186E-01
RMM:   5    -0.229967421967E+04    0.11124E-03   -0.13643E-03  4901   0.180E-02    0.193E-01
RMM:   6    -0.229967394864E+04    0.27103E-03   -0.10080E-03  4883   0.154E-02    0.124E-01
RMM:   7    -0.229967381918E+04    0.12946E-03   -0.28992E-04  4382   0.117E-02    0.358E-02
RMM:   8    -0.229967381231E+04    0.68717E-05   -0.37936E-05  2871   0.644E-03
  47 F= -.23203466E+04 E0= -.23203465E+04  d E =-.986113E-02  mag=     4.0000
       N       E                     dE             d eps       ncg     rms          rms(c)
DAV:   1    -0.229964448104E+04    0.29338E-01   -0.15195E+00  4512   0.107E+00    0.411E-01
RMM:   2    -0.229967772236E+04   -0.33241E-01   -0.34223E-01  6350   0.247E-01    0.463E-01
RMM:   3    -0.229968021050E+04   -0.24881E-02   -0.36064E-02  5942   0.959E-02    0.380E-01
RMM:   4    -0.229967935235E+04    0.85815E-03   -0.33545E-03  4807   0.217E-02    0.108E-01
RMM:   5    -0.229967929719E+04    0.55162E-04   -0.42200E-04  3583   0.102E-02    0.104E-01
RMM:   6    -0.229967923252E+04    0.64664E-04   -0.30805E-04  3483   0.950E-03    0.774E-02
RMM:   7    -0.229967918160E+04    0.50928E-04   -0.10504E-04  3308   0.784E-03    0.225E-02
RMM:   8    -0.229967917934E+04    0.22536E-05   -0.16171E-05  2862   0.522E-03
  48 F= -.23203513E+04 E0= -.23203513E+04  d E =-.471484E-02  mag=     4.0000
       N       E                     dE             d eps       ncg     rms          rms(c)
DAV:   1    -0.229950712380E+04    0.17206E+00   -0.76802E+00  4448   0.240E+00    0.916E-01
RMM:   2    -0.229967394167E+04   -0.16682E+00   -0.17324E+00  6413   0.557E-01    0.946E-01
RMM:   3    -0.229969081366E+04   -0.16872E-01   -0.20258E-01  6143   0.220E-01    0.930E-01
RMM:   4    -0.229968553210E+04    0.52816E-02   -0.17730E-02  5863   0.494E-02    0.260E-01
RMM:   5    -0.229968528037E+04    0.25173E-03   -0.22316E-03  4987   0.201E-02    0.254E-01
RMM:   6    -0.229968478002E+04    0.50035E-03   -0.16999E-03  5110   0.184E-02    0.168E-01
RMM:   7    -0.229968451121E+04    0.26881E-03   -0.65652E-04  4941   0.149E-02    0.499E-02
RMM:   8    -0.229968449827E+04    0.12940E-04   -0.66880E-05  2975   0.797E-03    0.236E-02
RMM:   9    -0.229968449300E+04    0.52780E-05   -0.23924E-05  2886   0.436E-03
  49 F= -.23203551E+04 E0= -.23203551E+04  d E =-.858371E-02  mag=     4.0000
       N       E                     dE             d eps       ncg     rms          rms(c)
DAV:   1    -0.229968276129E+04    0.17370E-02   -0.36106E-01  4640   0.602E-01    0.210E-01
RMM:   2    -0.229968821969E+04   -0.54584E-02   -0.57483E-02  5956   0.124E-01    0.166E-01
RMM:   3    -0.229968871429E+04   -0.49460E-03   -0.60635E-03  5412   0.528E-02    0.186E-01
RMM:   4    -0.229968842971E+04    0.28458E-03   -0.60504E-04  3866   0.129E-02    0.571E-02
RMM:   5    -0.229968842030E+04    0.94094E-05   -0.19685E-04  3826   0.984E-03    0.673E-02
RMM:   6    -0.229968838671E+04    0.33589E-04   -0.75000E-05  2873   0.684E-03    0.292E-02
RMM:   7    -0.229968838056E+04    0.61514E-05   -0.20328E-05  2874   0.497E-03
  50 F= -.23203590E+04 E0= -.23203590E+04  d E =-.385853E-02  mag=     4.0000
       N       E                     dE             d eps       ncg     rms          rms(c)
DAV:   1    -0.229968290422E+04    0.54825E-02   -0.44464E-01  4480   0.669E-01    0.233E-01
RMM:   2    -0.229968963109E+04   -0.67269E-02   -0.71072E-02  5932   0.138E-01    0.173E-01
RMM:   3    -0.229969026698E+04   -0.63588E-03   -0.75149E-03  5497   0.610E-02    0.201E-01
RMM:   4    -0.229968992073E+04    0.34625E-03   -0.74596E-04  4180   0.143E-02    0.641E-02
RMM:   5    -0.229968990771E+04    0.13018E-04   -0.25033E-04  4006   0.107E-02    0.751E-02
RMM:   6    -0.229968986670E+04    0.41006E-04   -0.89466E-05  2877   0.733E-03    0.325E-02
RMM:   7    -0.229968985868E+04    0.80271E-05   -0.23720E-05  2874   0.521E-03
  51 F= -.23203604E+04 E0= -.23203604E+04  d E =-.530579E-02  mag=     4.0000
       N       E                     dE             d eps       ncg     rms          rms(c)
DAV:   1    -0.229968983200E+04    0.34705E-04   -0.28229E-01  4512   0.572E-01    0.176E-01
RMM:   2    -0.229969251419E+04   -0.26822E-02   -0.27064E-02  5857   0.101E-01    0.170E-01
RMM:   3    -0.229969253527E+04   -0.21080E-04   -0.28552E-03  5107   0.439E-02    0.138E-01
RMM:   4    -0.229969232114E+04    0.21413E-03   -0.28961E-04  3906   0.109E-02    0.401E-02
RMM:   5    -0.229969229536E+04    0.25780E-04   -0.12661E-04  3938   0.893E-03    0.280E-02
RMM:   6    -0.229969230163E+04   -0.62669E-05   -0.43386E-05  2866   0.636E-03
  52 F= -.23203630E+04 E0= -.23203630E+04  d E =-.251601E-02  mag=     4.0000
       N       E                     dE             d eps       ncg     rms          rms(c)
DAV:   1    -0.229968978634E+04    0.25090E-02   -0.37928E-01  4480   0.663E-01    0.205E-01
RMM:   2    -0.229969337613E+04   -0.35898E-02   -0.36507E-02  5810   0.117E-01    0.192E-01
RMM:   3    -0.229969343664E+04   -0.60510E-04   -0.38582E-03  5191   0.464E-02    0.163E-01
RMM:   4    -0.229969314080E+04    0.29584E-03   -0.40136E-04  4299   0.122E-02    0.491E-02
RMM:   5    -0.229969313289E+04    0.79113E-05   -0.16200E-04  3834   0.954E-03    0.730E-02
RMM:   6    -0.229969309817E+04    0.34719E-04   -0.96682E-05  3040   0.728E-03    0.330E-02
RMM:   7    -0.229969308962E+04    0.85501E-05   -0.16613E-05  2861   0.564E-03
  53 F= -.23203638E+04 E0= -.23203638E+04  d E =-.338880E-02  mag=     4.0000
       N       E                     dE             d eps       ncg     rms          rms(c)
DAV:   1    -0.229969247212E+04    0.62606E-03   -0.34620E-01  4480   0.636E-01    0.174E-01
RMM:   2    -0.229969552610E+04   -0.30540E-02   -0.29824E-02  5736   0.108E-01    0.197E-01
RMM:   3    -0.229969537865E+04    0.14745E-03   -0.29646E-03  4959   0.462E-02    0.125E-01
RMM:   4    -0.229969521417E+04    0.16448E-03   -0.30326E-04  3959   0.108E-02    0.442E-02
RMM:   5    -0.229969520397E+04    0.10203E-04   -0.10669E-04  3520   0.853E-03    0.610E-02
RMM:   6    -0.229969518121E+04    0.22760E-04   -0.64452E-05  2890   0.667E-03    0.290E-02
RMM:   7    -0.229969517643E+04    0.47839E-05   -0.14556E-05  2857   0.503E-03
  54 F= -.23203659E+04 E0= -.23203659E+04  d E =-.202545E-02  mag=     4.0000
       N       E                     dE             d eps       ncg     rms          rms(c)
DAV:   1    -0.229969102099E+04    0.41602E-02   -0.65125E-01  4464   0.872E-01    0.238E-01
RMM:   2    -0.229969676160E+04   -0.57406E-02   -0.56031E-02  5757   0.148E-01    0.271E-01
RMM:   3    -0.229969649343E+04    0.26817E-03   -0.55490E-03  5225   0.617E-02    0.172E-01
RMM:   4    -0.229969617697E+04    0.31646E-03   -0.56550E-04  4471   0.146E-02    0.597E-02
RMM:   5    -0.229969612388E+04    0.53092E-04   -0.21124E-04  4189   0.116E-02    0.507E-02
RMM:   6    -0.229969612564E+04   -0.17643E-05   -0.87456E-05  2941   0.777E-03
  55 F= -.23203667E+04 E0= -.23203667E+04  d E =-.288933E-02  mag=     4.0000
       N       E                     dE             d eps       ncg     rms          rms(c)
DAV:   1    -0.229969511106E+04    0.10128E-02   -0.31167E-01  4528   0.603E-01    0.155E-01
RMM:   2    -0.229969777907E+04   -0.26680E-02   -0.27556E-02  5890   0.106E-01    0.144E-01
RMM:   3    -0.229969789038E+04   -0.11131E-03   -0.26233E-03  4942   0.427E-02    0.130E-01
RMM:   4    -0.229969773981E+04    0.15057E-03   -0.27457E-04  3507   0.103E-02    0.429E-02
RMM:   5    -0.229969774101E+04   -0.11919E-05   -0.10681E-04  3269   0.824E-03    0.611E-02
RMM:   6    -0.229969770901E+04    0.31992E-04   -0.55731E-05  2871   0.663E-03    0.183E-02
RMM:   7    -0.229969770759E+04    0.14231E-05   -0.15420E-05  2869   0.499E-03
  56 F= -.23203681E+04 E0= -.23203681E+04  d E =-.139576E-02  mag=     4.0000
       N       E                     dE             d eps       ncg     rms          rms(c)
DAV:   1    -0.229969691463E+04    0.79439E-03   -0.13983E-01  4608   0.404E-01    0.104E-01
RMM:   2    -0.229969810954E+04   -0.11949E-02   -0.12321E-02  5983   0.716E-02    0.938E-02
RMM:   3    -0.229969816226E+04   -0.52717E-04   -0.11911E-03  4017   0.295E-02    0.860E-02
RMM:   4    -0.229969809280E+04    0.69453E-04   -0.11910E-04  2911   0.776E-03    0.297E-02
RMM:   5    -0.229969809666E+04   -0.38548E-05   -0.52181E-05  2869   0.570E-03
  57 F= -.23203684E+04 E0= -.23203684E+04  d E =-.166015E-02  mag=     4.0000
       N       E                     dE             d eps       ncg     rms          rms(c)
DAV:   1    -0.229969763326E+04    0.45954E-03   -0.26110E-01  4448   0.562E-01    0.149E-01
RMM:   2    -0.229969947416E+04   -0.18409E-02   -0.19626E-02  5966   0.982E-02    0.103E-01
RMM:   3    -0.229969964548E+04   -0.17132E-03   -0.19776E-03  5084   0.401E-02    0.141E-01
RMM:   4    -0.229969950667E+04    0.13881E-03   -0.20326E-04  3281   0.974E-03    0.388E-02
RMM:   5    -0.229969949330E+04    0.13370E-04   -0.79678E-05  3526   0.804E-03    0.350E-02
RMM:   6    -0.229969949034E+04    0.29624E-05   -0.46971E-05  2859   0.646E-03
  58 F= -.23203697E+04 E0= -.23203697E+04  d E =-.131649E-02  mag=     4.0000
       N       E                     dE             d eps       ncg     rms          rms(c)
DAV:   1    -0.229969851902E+04    0.97428E-03   -0.18112E-01  4464   0.468E-01    0.125E-01
RMM:   2    -0.229969977717E+04   -0.12581E-02   -0.13511E-02  5863   0.809E-02    0.747E-02
RMM:   3    -0.229969988400E+04   -0.10683E-03   -0.13033E-03  4717   0.329E-02    0.107E-01
RMM:   4    -0.229969980574E+04    0.78268E-04   -0.14351E-04  2963   0.800E-03    0.336E-02
RMM:   5    -0.229969979477E+04    0.10964E-04   -0.49686E-05  3054   0.654E-03    0.284E-02
RMM:   6    -0.229969979343E+04    0.13409E-05   -0.32523E-05  2855   0.586E-03
  59 F= -.23203699E+04 E0= -.23203699E+04  d E =-.155482E-02  mag=     4.0000
       N       E                     dE             d eps       ncg     rms          rms(c)
DAV:   1    -0.229969958794E+04    0.20683E-03   -0.18486E-01  4480   0.469E-01    0.116E-01
RMM:   2    -0.229970082396E+04   -0.12360E-02   -0.13033E-02  5811   0.793E-02    0.841E-02
RMM:   3    -0.229970091632E+04   -0.92365E-04   -0.13295E-03  4658   0.340E-02    0.989E-02
RMM:   4    -0.229970083852E+04    0.77802E-04   -0.13040E-04  2944   0.794E-03    0.311E-02
RMM:   5    -0.229970083854E+04   -0.21988E-07   -0.52321E-05  2897   0.608E-03
  60 F= -.23203710E+04 E0= -.23203709E+04  d E =-.101403E-02  mag=     4.0000
       N       E                     dE             d eps       ncg     rms          rms(c)
DAV:   1    -0.229969810345E+04    0.27351E-02   -0.49597E-01  4448   0.768E-01    0.192E-01
RMM:   2    -0.229970147820E+04   -0.33747E-02   -0.34920E-02  5946   0.130E-01    0.168E-01
RMM:   3    -0.229970165430E+04   -0.17610E-03   -0.37484E-03  5494   0.538E-02    0.166E-01
RMM:   4    -0.229970140179E+04    0.25251E-03   -0.35182E-04  4079   0.128E-02    0.496E-02
RMM:   5    -0.229970136606E+04    0.35729E-04   -0.14299E-04  4068   0.102E-02    0.236E-02
RMM:   6    -0.229970137548E+04   -0.94162E-05   -0.40490E-05  2937   0.724E-03
  61 F= -.23203714E+04 E0= -.23203714E+04  d E =-.149930E-02  mag=     4.0000
       N       E                     dE             d eps       ncg     rms          rms(c)
DAV:   1    -0.229970148309E+04   -0.11703E-03   -0.22639E-01  4512   0.518E-01    0.136E-01
RMM:   2    -0.229970252306E+04   -0.10400E-02   -0.11534E-02  5845   0.868E-02    0.598E-02
RMM:   3    -0.229970253712E+04   -0.14057E-04   -0.99085E-04  4706   0.345E-02    0.483E-02
RMM:   4    -0.229970253658E+04    0.53213E-06   -0.12894E-04  3296   0.895E-03    0.509E-02
RMM:   5    -0.229970251224E+04    0.24343E-04   -0.77028E-05  3361   0.793E-03    0.264E-02
RMM:   6    -0.229970251175E+04    0.48670E-06   -0.22111E-05  2861   0.570E-03
  62 F= -.23203725E+04 E0= -.23203725E+04  d E =-.107859E-02  mag=     4.0000
       N       E                     dE             d eps       ncg     rms          rms(c)
DAV:   1    -0.229970227493E+04    0.23731E-03   -0.89989E-02  4608   0.326E-01    0.859E-02
RMM:   2    -0.229970269836E+04   -0.42342E-03   -0.46527E-03  5793   0.548E-02    0.418E-02
RMM:   3    -0.229970271225E+04   -0.13891E-04   -0.41310E-04  3912   0.225E-02    0.530E-02
RMM:   4    -0.229970269575E+04    0.16501E-04   -0.50394E-05  2872   0.587E-03    0.279E-02
RMM:   5    -0.229970268884E+04    0.69032E-05   -0.28421E-05  2882   0.506E-03
  63 F= -.23203727E+04 E0= -.23203727E+04  d E =-.121909E-02  mag=     4.0000
       N       E                     dE             d eps       ncg     rms          rms(c)
DAV:   1    -0.229970286015E+04   -0.16441E-03   -0.21795E-01  4480   0.501E-01    0.126E-01
RMM:   2    -0.229970388692E+04   -0.10268E-02   -0.11298E-02  5899   0.839E-02    0.560E-02
RMM:   3    -0.229970389657E+04   -0.96502E-05   -0.92619E-04  4589   0.336E-02    0.406E-02
RMM:   4    -0.229970391281E+04   -0.16244E-04   -0.14047E-04  3262   0.906E-03    0.648E-02
RMM:   5    -0.229970387534E+04    0.37468E-04   -0.59769E-05  2980   0.723E-03    0.177E-02
RMM:   6    -0.229970387796E+04   -0.26188E-05   -0.23685E-05  2857   0.533E-03
  64 F= -.23203738E+04 E0= -.23203738E+04  d E =-.112446E-02  mag=     4.0000
       N       E                     dE             d eps       ncg     rms          rms(c)
DAV:   1    -0.229970334008E+04    0.53526E-03   -0.18329E-01  4480   0.460E-01    0.116E-01
RMM:   2    -0.229970423153E+04   -0.89146E-03   -0.96322E-03  5920   0.766E-02    0.634E-02
RMM:   3    -0.229970428375E+04   -0.52216E-04   -0.81935E-04  4392   0.273E-02    0.853E-02
RMM:   4    -0.229970421704E+04    0.66711E-04   -0.11193E-04  2915   0.776E-03    0.353E-02
RMM:   5    -0.229970421298E+04    0.40592E-05   -0.54416E-05  3035   0.626E-03
  65 F= -.23203741E+04 E0= -.23203741E+04  d E =-.139984E-02  mag=     4.0000
       N       E                     dE             d eps       ncg     rms          rms(c)
DAV:   1    -0.229970423957E+04   -0.22535E-04   -0.16585E-01  4480   0.433E-01    0.113E-01
RMM:   2    -0.229970527830E+04   -0.10387E-02   -0.10796E-02  5997   0.742E-02    0.903E-02
RMM:   3    -0.229970534258E+04   -0.64276E-04   -0.10291E-03  4181   0.286E-02    0.100E-01
RMM:   4    -0.229970524111E+04    0.10147E-03   -0.12169E-04  2920   0.835E-03    0.327E-02
RMM:   5    -0.229970525236E+04   -0.11248E-04   -0.72152E-05  2927   0.654E-03    0.565E-02
RMM:   6    -0.229970522747E+04    0.24891E-04   -0.39409E-05  2865   0.613E-03    0.889E-03
RMM:   7    -0.229970522727E+04    0.19246E-06   -0.82320E-06  2847   0.406E-03
  66 F= -.23203751E+04 E0= -.23203750E+04  d E =-.992649E-03  mag=     4.0000
       N       E                     dE             d eps       ncg     rms          rms(c)
DAV:   1    -0.229970345811E+04    0.17694E-02   -0.37691E-01  4448   0.653E-01    0.168E-01
RMM:   2    -0.229970575671E+04   -0.22986E-02   -0.24305E-02  5795   0.109E-01    0.110E-01
RMM:   3    -0.229970593421E+04   -0.17749E-03   -0.22129E-03  4825   0.458E-02    0.141E-01
RMM:   4    -0.229970573674E+04    0.19746E-03   -0.27586E-04  3653   0.111E-02    0.461E-02
RMM:   5    -0.229970573599E+04    0.75271E-06   -0.13683E-04  3761   0.925E-03    0.653E-02
RMM:   6    -0.229970570584E+04    0.30157E-04   -0.71816E-05  2875   0.703E-03    0.259E-02
RMM:   7    -0.229970570098E+04    0.48557E-05   -0.13417E-05  2859   0.475E-03
  67 F= -.23203755E+04 E0= -.23203755E+04  d E =-.143396E-02  mag=     4.0000
       N       E                     dE             d eps       ncg     rms          rms(c)
DAV:   1    -0.229970488246E+04    0.82338E-03   -0.22036E-01  4480   0.489E-01    0.125E-01
RMM:   2    -0.229970666940E+04   -0.17869E-02   -0.18835E-02  5894   0.859E-02    0.812E-02
RMM:   3    -0.229970682465E+04   -0.15525E-03   -0.18063E-03  4281   0.366E-02    0.108E-01
RMM:   4    -0.229970673160E+04    0.93048E-04   -0.20027E-04  2923   0.875E-03    0.378E-02
RMM:   5    -0.229970673368E+04   -0.20751E-05   -0.74016E-05  2921   0.648E-03
  68 F= -.23203765E+04 E0= -.23203765E+04  d E =-.990991E-03  mag=     4.0000
       N       E                     dE             d eps       ncg     rms          rms(c)
DAV:   1    -0.229970394485E+04    0.27868E-02   -0.38582E-01  4448   0.647E-01    0.167E-01
RMM:   2    -0.229970709301E+04   -0.31482E-02   -0.33174E-02  5995   0.114E-01    0.115E-01
RMM:   3    -0.229970735418E+04   -0.26117E-03   -0.32103E-03  5121   0.462E-02    0.141E-01
RMM:   4    -0.229970716081E+04    0.19337E-03   -0.35008E-04  3286   0.112E-02    0.482E-02
RMM:   5    -0.229970713443E+04    0.26377E-04   -0.14193E-04  3998   0.917E-03    0.372E-02
RMM:   6    -0.229970713811E+04   -0.36769E-05   -0.49184E-05  2856   0.717E-03
  69 F= -.23203768E+04 E0= -.23203768E+04  d E =-.134098E-02  mag=     4.0000
       N       E                     dE             d eps       ncg     rms          rms(c)
DAV:   1    -0.229970617234E+04    0.96209E-03   -0.23314E-01  4480   0.500E-01    0.144E-01
RMM:   2    -0.229970804438E+04   -0.18720E-02   -0.20210E-02  5874   0.887E-02    0.708E-02
RMM:   3    -0.229970816951E+04   -0.12512E-03   -0.18115E-03  4459   0.360E-02    0.875E-02
RMM:   4    -0.229970813836E+04    0.31150E-04   -0.21882E-04  2981   0.851E-03    0.480E-02
RMM:   5    -0.229970811423E+04    0.24129E-04   -0.72522E-05  3218   0.710E-03    0.231E-02
RMM:   6    -0.229970811297E+04    0.12527E-05   -0.26347E-05  2883   0.599E-03
  70 F= -.23203778E+04 E0= -.23203778E+04  d E =-.100343E-02  mag=     4.0000
       N       E                     dE             d eps       ncg     rms          rms(c)
DAV:   1    -0.229970726995E+04    0.84428E-03   -0.11709E-01  4512   0.354E-01    0.103E-01
RMM:   2    -0.229970822232E+04   -0.95237E-03   -0.10265E-02  5869   0.636E-02    0.523E-02
RMM:   3    -0.229970829896E+04   -0.76643E-04   -0.94262E-04  3904   0.262E-02    0.711E-02
RMM:   4    -0.229970825901E+04    0.39955E-04   -0.11598E-04  2881   0.673E-03    0.298E-02
RMM:   5    -0.229970825001E+04    0.89933E-05   -0.40695E-05  2914   0.535E-03
  71 F= -.23203780E+04 E0= -.23203780E+04  d E =-.116091E-02  mag=     4.0000
       N       E                     dE             d eps       ncg     rms          rms(c)
DAV:   1    -0.229970710358E+04    0.11554E-02   -0.22940E-01  4480   0.493E-01    0.146E-01
RMM:   2    -0.229970909607E+04   -0.19925E-02   -0.21487E-02  6019   0.902E-02    0.672E-02
RMM:   3    -0.229970921595E+04   -0.11988E-03   -0.18981E-03  4822   0.359E-02    0.657E-02
RMM:   4    -0.229970920781E+04    0.81445E-05   -0.22122E-04  2986   0.871E-03    0.535E-02
RMM:   5    -0.229970918637E+04    0.21443E-04   -0.71096E-05  2961   0.666E-03    0.347E-02
RMM:   6    -0.229970918749E+04   -0.11212E-05   -0.40702E-05  2850   0.593E-03
  72 F= -.23203791E+04 E0= -.23203791E+04  d E =-.106513E-02  mag=     4.0000
       N       E                     dE             d eps       ncg     rms          rms(c)
DAV:   1    -0.229970685254E+04    0.23338E-02   -0.27287E-01  4448   0.538E-01    0.160E-01
RMM:   2    -0.229970925032E+04   -0.23978E-02   -0.25623E-02  5982   0.975E-02    0.885E-02
RMM:   3    -0.229970945208E+04   -0.20176E-03   -0.22958E-03  4939   0.370E-02    0.126E-01
RMM:   4    -0.229970934678E+04    0.10530E-03   -0.28323E-04  3000   0.946E-03    0.478E-02
RMM:   5    -0.229970933782E+04    0.89616E-05   -0.81251E-05  2977   0.696E-03
  73 F= -.23203794E+04 E0= -.23203793E+04  d E =-.135504E-02  mag=     4.0000
       N       E                     dE             d eps       ncg     rms          rms(c)
DAV:   1    -0.229970663920E+04    0.27076E-02   -0.28444E-01  4480   0.527E-01    0.168E-01
RMM:   2    -0.229971005751E+04   -0.34183E-02   -0.34776E-02  6117   0.103E-01    0.153E-01
RMM:   3    -0.229971024368E+04   -0.18617E-03   -0.36292E-03  5286   0.416E-02    0.138E-01
RMM:   4    -0.229971005756E+04    0.18613E-03   -0.34589E-04  3179   0.104E-02    0.448E-02
RMM:   5    -0.229971005387E+04    0.36846E-05   -0.12349E-04  3422   0.818E-03    0.548E-02
RMM:   6    -0.229971003859E+04    0.15282E-04   -0.62017E-05  2857   0.664E-03    0.336E-02
RMM:   7    -0.229971003140E+04    0.71950E-05   -0.13900E-05  2859   0.431E-03
  74 F= -.23203802E+04 E0= -.23203802E+04  d E =-.894042E-03  mag=     4.0000
       N       E                     dE             d eps       ncg     rms          rms(c)
DAV:   1    -0.229970945362E+04    0.58498E-03   -0.45423E-02  4752   0.211E-01    0.662E-02
RMM:   2    -0.229970998923E+04   -0.53561E-03   -0.55987E-03  6213   0.424E-02    0.484E-02
RMM:   3    -0.229971003969E+04   -0.50457E-04   -0.56209E-04  3159   0.163E-02    0.623E-02
RMM:   4    -0.229971001147E+04    0.28220E-04   -0.61857E-05  2870   0.517E-03    0.201E-02
RMM:   5    -0.229971001210E+04   -0.63315E-06   -0.17530E-05  2872   0.310E-03
  75 F= -.23203803E+04 E0= -.23203803E+04  d E =-.955254E-03  mag=     4.0000
       N       E                     dE             d eps       ncg     rms          rms(c)
DAV:   1    -0.229970759840E+04    0.24131E-02   -0.22961E-01  4448   0.477E-01    0.161E-01
RMM:   2    -0.229971045276E+04   -0.28544E-02   -0.29883E-02  5996   0.949E-02    0.106E-01
RMM:   3    -0.229971071829E+04   -0.26553E-03   -0.29377E-03  5018   0.382E-02    0.131E-01
RMM:   4    -0.229971055048E+04    0.16781E-03   -0.31704E-04  3084   0.979E-03    0.399E-02
RMM:   5    -0.229971053263E+04    0.17856E-04   -0.94037E-05  3329   0.756E-03    0.290E-02
RMM:   6    -0.229971053819E+04   -0.55607E-05   -0.45751E-05  2860   0.632E-03
  76 F= -.23203812E+04 E0= -.23203812E+04  d E =-.853171E-03  mag=     4.0000
       N       E                     dE             d eps       ncg     rms          rms(c)
DAV:   1    -0.229970868015E+04    0.18525E-02   -0.11993E-01  4512   0.345E-01    0.117E-01
RMM:   2    -0.229971017067E+04   -0.14905E-02   -0.15801E-02  6046   0.693E-02    0.634E-02
RMM:   3    -0.229971030095E+04   -0.13029E-03   -0.14853E-03  3993   0.259E-02    0.790E-02
RMM:   4    -0.229971024982E+04    0.51131E-04   -0.16839E-04  2878   0.725E-03    0.331E-02
RMM:   5    -0.229971024200E+04    0.78228E-05   -0.41244E-05  2870   0.495E-03
  77 F= -.23203811E+04 E0= -.23203811E+04  d E =-.794835E-03  mag=     4.0000
       N       E                     dE             d eps       ncg     rms          rms(c)
DAV:   1    -0.229971007975E+04    0.17007E-03   -0.28616E-02  4640   0.168E-01    0.615E-02
RMM:   2    -0.229971047371E+04   -0.39395E-03   -0.37230E-03  6211   0.350E-02    0.870E-02
RMM:   3    -0.229971045994E+04    0.13770E-04   -0.37484E-04  2996   0.128E-02    0.474E-02
RMM:   4    -0.229971044397E+04    0.15967E-04   -0.37757E-05  2868   0.450E-03    0.116E-02
RMM:   5    -0.229971044268E+04    0.12941E-05   -0.90952E-06  2852   0.277E-03
  78 F= -.23203812E+04 E0= -.23203812E+04  d E =-.881075E-03  mag=     4.0000
       N       E                     dE             d eps       ncg     rms          rms(c)
DAV:   1    -0.229970861870E+04    0.18253E-02   -0.15338E-01  4480   0.379E-01    0.121E-01
RMM:   2    -0.229971071967E+04   -0.21010E-02   -0.22114E-02  6236   0.760E-02    0.636E-02
RMM:   3    -0.229971088642E+04   -0.16675E-03   -0.19385E-03  3912   0.280E-02    0.691E-02
RMM:   4    -0.229971085930E+04    0.27118E-04   -0.22125E-04  2903   0.760E-03    0.353E-02
RMM:   5    -0.229971084717E+04    0.12129E-04   -0.37024E-05  2857   0.488E-03    0.229E-02
RMM:   6    -0.229971084784E+04   -0.67042E-06   -0.26994E-05  2860   0.463E-03
  79 F= -.23203820E+04 E0= -.23203819E+04  d E =-.761927E-03  mag=     4.0000
       N       E                     dE             d eps       ncg     rms          rms(c)
DAV:   1    -0.229970396114E+04    0.68860E-02   -0.45393E-01  4448   0.652E-01    0.209E-01
RMM:   2    -0.229971024488E+04   -0.62837E-02   -0.65715E-02  6061   0.130E-01    0.131E-01
RMM:   3    -0.229971078768E+04   -0.54281E-03   -0.60307E-03  5431   0.502E-02    0.153E-01
RMM:   4    -0.229971060088E+04    0.18681E-03   -0.67486E-04  3210   0.118E-02    0.609E-02
RMM:   5    -0.229971058198E+04    0.18892E-04   -0.12320E-04  3008   0.794E-03    0.600E-02
RMM:   6    -0.229971057215E+04    0.98291E-05   -0.10335E-04  2939   0.735E-03    0.515E-02
RMM:   7    -0.229971055003E+04    0.22123E-04   -0.34554E-05  2874   0.608E-03    0.943E-03
RMM:   8    -0.229971054906E+04    0.97230E-06   -0.83175E-06  2846   0.424E-03
  80 F= -.23203823E+04 E0= -.23203823E+04  d E =-.108071E-02  mag=     4.0000
       N       E                     dE             d eps       ncg     rms          rms(c)
DAV:   1    -0.229970819777E+04    0.23523E-02   -0.18547E-01  4512   0.415E-01    0.137E-01
RMM:   2    -0.229971076089E+04   -0.25631E-02   -0.26968E-02  6075   0.832E-02    0.759E-02
RMM:   3    -0.229971097942E+04   -0.21853E-03   -0.24038E-03  4375   0.320E-02    0.892E-02
RMM:   4    -0.229971092034E+04    0.59084E-04   -0.27622E-04  2900   0.814E-03    0.381E-02
RMM:   5    -0.229971090646E+04    0.13877E-04   -0.50022E-05  2864   0.543E-03    0.230E-02
RMM:   6    -0.229971090864E+04   -0.21786E-05   -0.31669E-05  2866   0.505E-03
  81 F= -.23203830E+04 E0= -.23203830E+04  d E =-.738258E-03  mag=     4.0000
       N       E                     dE             d eps       ncg     rms          rms(c)
DAV:   1    -0.229970652120E+04    0.43853E-02   -0.28333E-01  4448   0.514E-01    0.170E-01
RMM:   2    -0.229971043647E+04   -0.39153E-02   -0.41291E-02  5994   0.102E-01    0.902E-02
RMM:   3    -0.229971076604E+04   -0.32957E-03   -0.36931E-03  4949   0.407E-02    0.105E-01
RMM:   4    -0.229971069589E+04    0.70148E-04   -0.42456E-04  2940   0.939E-03    0.512E-02
RMM:   5    -0.229971067948E+04    0.16408E-04   -0.74034E-05  2888   0.623E-03    0.433E-02
RMM:   6    -0.229971067989E+04   -0.41534E-06   -0.65775E-05  2862   0.598E-03
  82 F= -.23203832E+04 E0= -.23203832E+04  d E =-.979181E-03  mag=     4.0000
       N       E                     dE             d eps       ncg     rms          rms(c)
DAV:   1    -0.229970949352E+04    0.11860E-02   -0.11455E-01  4576   0.336E-01    0.117E-01
RMM:   2    -0.229971100504E+04   -0.15115E-02   -0.16256E-02  6093   0.679E-02    0.524E-02
RMM:   3    -0.229971110102E+04   -0.95981E-04   -0.14432E-03  4025   0.271E-02    0.436E-02
RMM:   4    -0.229971110701E+04   -0.59850E-05   -0.17436E-04  2912   0.688E-03    0.443E-02
RMM:   5    -0.229971108927E+04    0.17734E-04   -0.42090E-05  2855   0.498E-03    0.212E-02
RMM:   6    -0.229971108596E+04    0.33130E-05   -0.16988E-05  2881   0.433E-03
  83 F= -.23203839E+04 E0= -.23203839E+04  d E =-.635862E-03  mag=     4.0000
       N       E                     dE             d eps       ncg     rms          rms(c)
DAV:   1    -0.229971030963E+04    0.77964E-03   -0.51623E-02  4608   0.225E-01    0.787E-02
RMM:   2    -0.229971099530E+04   -0.68567E-03   -0.73064E-03  6153   0.463E-02    0.448E-02
RMM:   3    -0.229971105446E+04   -0.59160E-04   -0.66377E-04  3240   0.177E-02    0.586E-02
RMM:   4    -0.229971102917E+04    0.25295E-04   -0.78595E-05  2876   0.566E-03    0.232E-02
RMM:   5    -0.229971102365E+04    0.55216E-05   -0.22366E-05  2864   0.386E-03
  84 F= -.23203840E+04 E0= -.23203840E+04  d E =-.727890E-03  mag=     4.0000
       N       E                     dE             d eps       ncg     rms          rms(c)
DAV:   1    -0.229970972039E+04    0.13088E-02   -0.12327E-01  4480   0.356E-01    0.115E-01
RMM:   2    -0.229971129997E+04   -0.15796E-02   -0.16893E-02  6033   0.680E-02    0.536E-02
RMM:   3    -0.229971142230E+04   -0.12232E-03   -0.15113E-03  3875   0.281E-02    0.713E-02
RMM:   4    -0.229971140238E+04    0.19920E-04   -0.17797E-04  2885   0.697E-03    0.360E-02
RMM:   5    -0.229971138753E+04    0.14852E-04   -0.34512E-05  2875   0.477E-03    0.165E-02
RMM:   6    -0.229971138888E+04   -0.13531E-05   -0.19125E-05  2875   0.444E-03
  85 F= -.23203846E+04 E0= -.23203846E+04  d E =-.610696E-03  mag=     4.0000
[...]
RMM:   3    -0.229971290946E+04   -0.11766E-05   -0.59764E-05  2841   0.700E-03
 161 F= -.23203901E+04 E0= -.23203901E+04  d E =-.246390E-04  mag=     4.0000
       N       E                     dE             d eps       ncg     rms          rms(c)
DAV:   1    -0.229971290415E+04    0.41380E-05   -0.78358E-05  5016   0.837E-03    0.711E-03
RMM:   2    -0.229971290516E+04   -0.10108E-05   -0.15289E-05  2385   0.248E-03
 162 F= -.23203901E+04 E0= -.23203901E+04  d E =-.220170E-04  mag=     4.0000
       N       E                     dE             d eps       ncg     rms          rms(c)
DAV:   1    -0.229971288375E+04    0.20397E-04   -0.29503E-03  4480   0.533E-02    0.245E-02
RMM:   2    -0.229971293930E+04   -0.55551E-04   -0.47227E-04  4089   0.123E-02    0.445E-02
RMM:   3    -0.229971292843E+04    0.10871E-04   -0.48701E-05  2828   0.685E-03    0.124E-02
RMM:   4    -0.229971292717E+04    0.12647E-05   -0.63743E-06  2654   0.190E-03
 163 F= -.23203902E+04 E0= -.23203902E+04  d E =-.241889E-04  mag=     4.0000
       N       E                     dE             d eps       ncg     rms          rms(c)
DAV:   1    -0.229971292538E+04    0.30540E-05   -0.85400E-05  5112   0.913E-03    0.657E-03
RMM:   2    -0.229971292892E+04   -0.35384E-05   -0.17983E-05  2464   0.249E-03
 164 F= -.23203902E+04 E0= -.23203902E+04  d E =-.263265E-04  mag=     4.0000
       N       E                     dE             d eps       ncg     rms          rms(c)
DAV:   1    -0.229971289845E+04    0.26928E-04   -0.26730E-03  4448   0.485E-02    0.205E-02
RMM:   2    -0.229971294791E+04   -0.49462E-04   -0.47998E-04  3978   0.121E-02    0.266E-02
RMM:   3    -0.229971294722E+04    0.69507E-06   -0.52289E-05  2766   0.667E-03
 165 F= -.23203902E+04 E0= -.23203902E+04  d E =-.188290E-04  mag=     4.0000
       N       E                     dE             d eps       ncg     rms          rms(c)
DAV:   1    -0.229971294478E+04    0.31297E-05   -0.86145E-05  4984   0.867E-03    0.712E-03
RMM:   2    -0.229971294693E+04   -0.21502E-05   -0.19367E-05  2390   0.266E-03
 166 F= -.23203902E+04 E0= -.23203902E+04  d E =-.186358E-04  mag=     4.0000
       N       E                     dE             d eps       ncg     rms          rms(c)
DAV:   1    -0.229971291732E+04    0.27464E-04   -0.19074E-03  4416   0.407E-02    0.178E-02
RMM:   2    -0.229971295422E+04   -0.36906E-04   -0.34293E-04  3505   0.102E-02    0.277E-02
RMM:   3    -0.229971295171E+04    0.25191E-05   -0.38168E-05  2646   0.593E-03
 167 F= -.23203902E+04 E0= -.23203902E+04  d E =-.189926E-04  mag=     4.0000
       N       E                     dE             d eps       ncg     rms          rms(c)
DAV:   1    -0.229971294630E+04    0.79267E-05   -0.96407E-05  5040   0.913E-03    0.647E-03
RMM:   2    -0.229971294817E+04   -0.18747E-05   -0.19636E-05  2376   0.268E-03
 168 F= -.23203902E+04 E0= -.23203902E+04  d E =-.186805E-04  mag=     4.0000
       N       E                     dE             d eps       ncg     rms          rms(c)
DAV:   1    -0.229971293761E+04    0.86899E-05   -0.88874E-04  4320   0.294E-02    0.128E-02
RMM:   2    -0.229971295268E+04   -0.15074E-04   -0.13781E-04  2956   0.740E-03    0.199E-02
RMM:   3    -0.229971295124E+04    0.14450E-05   -0.16749E-05  2311   0.452E-03
 169 F= -.23203902E+04 E0= -.23203902E+04  d E =-.145677E-04  mag=     4.0000
       N       E                     dE             d eps       ncg     rms          rms(c)
DAV:   1    -0.229971294312E+04    0.95634E-05   -0.27543E-04  4648   0.164E-02    0.786E-03
RMM:   2    -0.229971294724E+04   -0.41239E-05   -0.42532E-05  2608   0.437E-03
 170 F= -.23203902E+04 E0= -.23203902E+04  d E =-.170657E-04  mag=     4.0000
       N       E                     dE             d eps       ncg     rms          rms(c)
DAV:   1    -0.229971294113E+04    0.19898E-05   -0.69800E-04  4304   0.260E-02    0.124E-02
RMM:   2    -0.229971295475E+04   -0.13626E-04   -0.11670E-04  2934   0.696E-03    0.224E-02
RMM:   3    -0.229971295214E+04    0.26164E-05   -0.14049E-05  2357   0.422E-03
 171 F= -.23203902E+04 E0= -.23203902E+04  d E =-.115639E-04  mag=     4.0000
       N       E                     dE             d eps       ncg     rms          rms(c)
DAV:   1    -0.229971294639E+04    0.83695E-05   -0.20213E-04  4944   0.140E-02    0.704E-03
RMM:   2    -0.229971294944E+04   -0.30588E-05   -0.31591E-05  2477   0.379E-03
 172 F= -.23203902E+04 E0= -.23203902E+04  d E =-.125121E-04  mag=     4.0000
       N       E                     dE             d eps       ncg     rms          rms(c)
DAV:   1    -0.229971293929E+04    0.70986E-05   -0.34457E-04  4144   0.166E-02    0.867E-03
RMM:   2    -0.229971294770E+04   -0.84175E-05   -0.70469E-05  2620   0.475E-03
 173 F= -.23203902E+04 E0= -.23203902E+04  d E =-.758567E-05  mag=     4.0000
       N       E                     dE             d eps       ncg     rms          rms(c)
DAV:   1    -0.229971294127E+04   -0.19837E-05   -0.92986E-05  4104   0.875E-03    0.558E-03
RMM:   2    -0.229971294351E+04   -0.22355E-05   -0.20549E-05  2344   0.360E-03
 174 F= -.23203902E+04 E0= -.23203902E+04  d E =-.773588E-05  mag=     4.0000
       N       E                     dE             d eps       ncg     rms          rms(c)
DAV:   1    -0.229971294333E+04   -0.20617E-05   -0.25501E-04  4160   0.155E-02    0.675E-03
RMM:   2    -0.229971294770E+04   -0.43666E-05   -0.40540E-05  2395   0.419E-03
 175 F= -.23203902E+04 E0= -.23203902E+04  d E =-.108907E-04  mag=     4.0000
       N       E                     dE             d eps       ncg     rms          rms(c)
DAV:   1    -0.229971294004E+04    0.32950E-05   -0.35575E-04  4200   0.185E-02    0.934E-03
RMM:   2    -0.229971294671E+04   -0.66751E-05   -0.59557E-05  2700   0.535E-03
 176 F= -.23203903E+04 E0= -.23203902E+04  d E =-.178084E-04  mag=     4.0000
       N       E                     dE             d eps       ncg     rms          rms(c)
DAV:   1    -0.229971294328E+04   -0.32443E-05   -0.38103E-05  3440   0.643E-03    0.602E-03
RMM:   2    -0.229971294512E+04   -0.18369E-05   -0.10226E-05  2290   0.417E-03
 177 F= -.23203903E+04 E0= -.23203902E+04  d E =-.182808E-04  mag=     4.0000
       N       E                     dE             d eps       ncg     rms          rms(c)
DAV:   1    -0.229971293255E+04    0.10729E-04   -0.37527E-04  4112   0.161E-02    0.733E-03
RMM:   2    -0.229971293969E+04   -0.71422E-05   -0.72777E-05  2566   0.440E-03
 178 F= -.23203903E+04 E0= -.23203903E+04  d E =-.596143E-05  mag=     4.0000
       N       E                     dE             d eps       ncg     rms          rms(c)
DAV:   1    -0.229971292032E+04    0.12231E-04   -0.54336E-04  4160   0.193E-02    0.108E-02
RMM:   2    -0.229971293466E+04   -0.14334E-04   -0.11632E-04  2849   0.577E-03    0.236E-02
RMM:   3    -0.229971293156E+04    0.30992E-05   -0.14414E-05  2325   0.371E-03
 179 F= -.23203903E+04 E0= -.23203903E+04  d E =-.116184E-04  mag=     4.0000
       N       E                     dE             d eps       ncg     rms          rms(c)
DAV:   1    -0.229971293035E+04    0.43021E-05   -0.43992E-04  4240   0.186E-02    0.801E-03
RMM:   2    -0.229971293898E+04   -0.86278E-05   -0.79208E-05  2707   0.473E-03
 180 F= -.23203903E+04 E0= -.23203903E+04  d E =-.122257E-04  mag=     4.0000
       N       E                     dE             d eps       ncg     rms          rms(c)
DAV:   1    -0.229971293162E+04   -0.12688E-05   -0.41774E-04  4280   0.182E-02    0.929E-03
RMM:   2    -0.229971294116E+04   -0.95364E-05   -0.84087E-05  2771   0.525E-03
 181 F= -.23203903E+04 E0= -.23203903E+04  d E =-.189828E-04  mag=     4.0000
       N       E                     dE             d eps       ncg     rms          rms(c)
DAV:   1    -0.229971293678E+04   -0.51582E-05   -0.11179E-04  4568   0.953E-03    0.674E-03
RMM:   2    -0.229971293981E+04   -0.30250E-05   -0.24866E-05  2358   0.317E-03
 182 F= -.23203903E+04 E0= -.23203903E+04  d E =-.198121E-04  mag=     4.0000
       N       E                     dE             d eps       ncg     rms          rms(c)
DAV:   1    -0.229971293130E+04    0.54789E-05   -0.53907E-04  4176   0.196E-02    0.910E-03
RMM:   2    -0.229971294239E+04   -0.11085E-04   -0.10509E-04  2733   0.546E-03    0.140E-02
RMM:   3    -0.229971294208E+04    0.30760E-06   -0.12639E-05  2251   0.368E-03
 183 F= -.23203903E+04 E0= -.23203903E+04  d E =-.882701E-05  mag=     4.0000
       N       E                     dE             d eps       ncg     rms          rms(c)
DAV:   1    -0.229971293373E+04    0.86581E-05   -0.34419E-04  4208   0.156E-02    0.753E-03
RMM:   2    -0.229971294029E+04   -0.65610E-05   -0.65779E-05  2647   0.421E-03
 184 F= -.23203903E+04 E0= -.23203903E+04  d E =-.123625E-04  mag=     4.0000
       N       E                     dE             d eps       ncg     rms          rms(c)
DAV:   1    -0.229971292790E+04    0.58293E-05   -0.68723E-04  4192   0.227E-02    0.112E-02
RMM:   2    -0.229971294373E+04   -0.15826E-04   -0.13642E-04  2946   0.646E-03    0.208E-02
RMM:   3    -0.229971294128E+04    0.24500E-05   -0.16224E-05  2348   0.421E-03
 185 F= -.23203903E+04 E0= -.23203903E+04  d E =-.120281E-04  mag=     4.0000
       N       E                     dE             d eps       ncg     rms          rms(c)
DAV:   1    -0.229971293201E+04    0.11710E-04   -0.29133E-04  4536   0.148E-02    0.757E-03
RMM:   2    -0.229971293770E+04   -0.56852E-05   -0.54207E-05  2647   0.411E-03
 186 F= -.23203903E+04 E0= -.23203903E+04  d E =-.157294E-04  mag=     4.0000
       N       E                     dE             d eps       ncg     rms          rms(c)
DAV:   1    -0.229971291736E+04    0.14655E-04   -0.83801E-04  4192   0.260E-02    0.119E-02
RMM:   2    -0.229971293464E+04   -0.17283E-04   -0.15617E-04  2985   0.715E-03    0.201E-02
RMM:   3    -0.229971293300E+04    0.16421E-05   -0.18499E-05  2314   0.453E-03
 187 F= -.23203903E+04 E0= -.23203903E+04  d E =-.122116E-04  mag=     4.0000
       N       E                     dE             d eps       ncg     rms          rms(c)
DAV:   1    -0.229971290606E+04    0.28584E-04   -0.86261E-04  4296   0.264E-02    0.118E-02
RMM:   2    -0.229971292163E+04   -0.15576E-04   -0.15117E-04  2924   0.665E-03    0.159E-02
RMM:   3    -0.229971292130E+04    0.33650E-06   -0.17347E-05  2474   0.433E-03
 188 F= -.23203903E+04 E0= -.23203903E+04  d E =-.178507E-04  mag=     4.0000
       N       E                     dE             d eps       ncg     rms          rms(c)
DAV:   1    -0.229971291146E+04    0.10175E-04   -0.63940E-04  4344   0.216E-02    0.959E-03
RMM:   2    -0.229971292436E+04   -0.12899E-04   -0.12412E-04  2895   0.574E-03    0.139E-02
RMM:   3    -0.229971292414E+04    0.22310E-06   -0.14046E-05  2311   0.385E-03
 189 F= -.23203903E+04 E0= -.23203903E+04  d E =-.944106E-05  mag=     4.0000
       N       E                     dE             d eps       ncg     rms          rms(c)
DAV:   1    -0.229971291080E+04    0.13562E-04   -0.64082E-04  4248   0.216E-02    0.984E-03
RMM:   2    -0.229971292369E+04   -0.12898E-04   -0.12348E-04  2896   0.563E-03    0.146E-02
RMM:   3    -0.229971292329E+04    0.40360E-06   -0.13893E-05  2366   0.378E-03
 190 F= -.23203903E+04 E0= -.23203903E+04  d E =-.152060E-04  mag=     4.0000
       N       E                     dE             d eps       ncg     rms          rms(c)
DAV:   1    -0.229971292135E+04    0.23431E-05   -0.92488E-04  4224   0.270E-02    0.119E-02
RMM:   2    -0.229971293966E+04   -0.18311E-04   -0.17199E-04  2969   0.679E-03    0.183E-02
RMM:   3    -0.229971293877E+04    0.88908E-06   -0.18750E-05  2398   0.441E-03
 191 F= -.23203904E+04 E0= -.23203904E+04  d E =-.154596E-04  mag=     4.0000
       N       E                     dE             d eps       ncg     rms          rms(c)
DAV:   1    -0.229971293567E+04    0.39920E-05   -0.38843E-04  4624   0.174E-02    0.873E-03
RMM:   2    -0.229971294363E+04   -0.79621E-05   -0.74234E-05  2762   0.469E-03
 192 F= -.23203904E+04 E0= -.23203904E+04  d E =-.203002E-04  mag=     4.0000
       N       E                     dE             d eps       ncg     rms          rms(c)
DAV:   1    -0.229971294251E+04   -0.68384E-05   -0.61338E-05  3440   0.718E-03    0.631E-03
RMM:   2    -0.229971294498E+04   -0.24699E-05   -0.16157E-05  2342   0.399E-03
 193 F= -.23203904E+04 E0= -.23203904E+04  d E =-.216391E-04  mag=     4.0000
       N       E                     dE             d eps       ncg     rms          rms(c)
DAV:   1    -0.229971293363E+04    0.88762E-05   -0.86756E-04  4264   0.243E-02    0.112E-02
RMM:   2    -0.229971295174E+04   -0.18110E-04   -0.17292E-04  2976   0.631E-03    0.172E-02
RMM:   3    -0.229971295137E+04    0.37506E-06   -0.19087E-05  2297   0.425E-03
 194 F= -.23203904E+04 E0= -.23203904E+04  d E =-.126794E-04  mag=     4.0000
       N       E                     dE             d eps       ncg     rms          rms(c)
DAV:   1    -0.229971291689E+04    0.34848E-04   -0.15748E-03  4392   0.327E-02    0.151E-02
RMM:   2    -0.229971294871E+04   -0.31819E-04   -0.31530E-04  3149   0.814E-03    0.191E-02
RMM:   3    -0.229971294922E+04   -0.51199E-06   -0.33415E-05  2741   0.524E-03
 195 F= -.23203904E+04 E0= -.23203904E+04  d E =-.191596E-04  mag=     4.0000
       N       E                     dE             d eps       ncg     rms          rms(c)
DAV:   1    -0.229971293281E+04    0.15904E-04   -0.81071E-04  4424   0.229E-02    0.106E-02
RMM:   2    -0.229971295043E+04   -0.17621E-04   -0.17123E-04  2951   0.612E-03    0.148E-02
RMM:   3    -0.229971295062E+04   -0.19436E-06   -0.19383E-05  2398   0.407E-03
 196 F= -.23203904E+04 E0= -.23203904E+04  d E =-.108413E-04  mag=     4.0000
       N       E                     dE             d eps       ncg     rms          rms(c)
DAV:   1    -0.229971278764E+04    0.16279E-03   -0.73382E-03  4416   0.683E-02    0.311E-02
RMM:   2    -0.229971294467E+04   -0.15703E-03   -0.15112E-03  5210   0.166E-02    0.465E-02
RMM:   3    -0.229971294247E+04    0.22039E-05   -0.14559E-04  2849   0.759E-03    0.194E-02
RMM:   4    -0.229971294043E+04    0.20385E-05   -0.17043E-05  2832   0.218E-03
 197 F= -.23203904E+04 E0= -.23203904E+04  d E =-.289512E-04  mag=     4.0000
       N       E                     dE             d eps       ncg     rms          rms(c)
DAV:   1    -0.229971292241E+04    0.20057E-04   -0.16143E-03  4384   0.331E-02    0.145E-02
RMM:   2    -0.229971295636E+04   -0.33946E-04   -0.32686E-04  3216   0.819E-03    0.197E-02
RMM:   3    -0.229971295576E+04    0.59840E-06   -0.33061E-05  2625   0.498E-03
 198 F= -.23203904E+04 E0= -.23203904E+04  d E =-.233172E-04  mag=     4.0000
       N       E                     dE             d eps       ncg     rms          rms(c)
DAV:   1    -0.229971287474E+04    0.81618E-04   -0.39736E-03  4432   0.515E-02    0.238E-02
RMM:   2    -0.229971295903E+04   -0.84292E-04   -0.81526E-04  4201   0.127E-02    0.348E-02
RMM:   3    -0.229971295791E+04    0.11213E-05   -0.82844E-05  2842   0.676E-03
 199 F= -.23203905E+04 E0= -.23203905E+04  d E =-.378767E-04  mag=     4.0000
       N       E                     dE             d eps       ncg     rms          rms(c)
DAV:   1    -0.229971292436E+04    0.34668E-04   -0.22158E-03  4304   0.383E-02    0.183E-02
RMM:   2    -0.229971297417E+04   -0.49809E-04   -0.46885E-04  3400   0.996E-03    0.296E-02
RMM:   3    -0.229971297220E+04    0.19705E-05   -0.50152E-05  2786   0.570E-03
 200 F= -.23203905E+04 E0= -.23203905E+04  d E =-.177194E-04  mag=     4.0000
       N       E                     dE             d eps       ncg     rms          rms(c)
DAV:   1    -0.229971294005E+04    0.34122E-04   -0.16674E-03  4432   0.331E-02    0.163E-02
RMM:   2    -0.229971297751E+04   -0.37462E-04   -0.35076E-04  3163   0.868E-03    0.269E-02
RMM:   3    -0.229971297549E+04    0.20211E-05   -0.37919E-05  2753   0.538E-03
 201 F= -.23203905E+04 E0= -.23203905E+04  d E =-.239814E-04  mag=     4.0000
       N       E                     dE             d eps       ncg     rms          rms(c)
DAV:   1    -0.229971296578E+04    0.11736E-04   -0.17564E-03  4400   0.372E-02    0.164E-02
RMM:   2    -0.229971300099E+04   -0.35208E-04   -0.33305E-04  3256   0.913E-03    0.247E-02
RMM:   3    -0.229971299978E+04    0.12008E-05   -0.35320E-05  2638   0.565E-03
 202 F= -.23203905E+04 E0= -.23203905E+04  d E =-.233243E-04  mag=     4.0000
       N       E                     dE             d eps       ncg     rms          rms(c)
DAV:   1    -0.229971297682E+04    0.24167E-04   -0.16188E-03  4504   0.356E-02    0.165E-02
RMM:   2    -0.229971300826E+04   -0.31445E-04   -0.30613E-04  3138   0.885E-03    0.222E-02
RMM:   3    -0.229971300793E+04    0.33624E-06   -0.33726E-05  2802   0.553E-03
 203 F= -.23203905E+04 E0= -.23203905E+04  d E =-.305304E-04  mag=     4.0000
       N       E                     dE             d eps       ncg     rms          rms(c)
DAV:   1    -0.229971299322E+04    0.15045E-04   -0.13396E-03  4424   0.342E-02    0.146E-02
RMM:   2    -0.229971301738E+04   -0.24161E-04   -0.23450E-04  3108   0.828E-03    0.192E-02
RMM:   3    -0.229971301729E+04    0.94398E-07   -0.26493E-05  2625   0.527E-03
 204 F= -.23203905E+04 E0= -.23203905E+04  d E =-.147930E-04  mag=     4.0000
       N       E                     dE             d eps       ncg     rms          rms(c)
DAV:   1    -0.229971300181E+04    0.15568E-04   -0.77914E-04  4472   0.260E-02    0.119E-02
RMM:   2    -0.229971301564E+04   -0.13832E-04   -0.13731E-04  2940   0.652E-03    0.147E-02
RMM:   3    -0.229971301569E+04   -0.41036E-07   -0.16254E-05  2513   0.419E-03
 205 F= -.23203905E+04 E0= -.23203905E+04  d E =-.173685E-04  mag=     4.0000
       N       E                     dE             d eps       ncg     rms          rms(c)
DAV:   1    -0.229971300552E+04    0.10129E-04   -0.93680E-04  4264   0.271E-02    0.119E-02
RMM:   2    -0.229971302436E+04   -0.18846E-04   -0.18239E-04  2960   0.692E-03    0.168E-02
RMM:   3    -0.229971302415E+04    0.21275E-06   -0.20428E-05  2467   0.450E-03
 206 F= -.23203905E+04 E0= -.23203905E+04  d E =-.117393E-04  mag=     4.0000
       N       E                     dE             d eps       ncg     rms          rms(c)
DAV:   1    -0.229971300823E+04    0.16132E-04   -0.81790E-04  4352   0.253E-02    0.115E-02
RMM:   2    -0.229971302476E+04   -0.16532E-04   -0.15958E-04  2943   0.651E-03    0.166E-02
RMM:   3    -0.229971302436E+04    0.39919E-06   -0.17917E-05  2532   0.421E-03
 207 F= -.23203905E+04 E0= -.23203905E+04  d E =-.150141E-04  mag=     4.0000
       N       E                     dE             d eps       ncg     rms          rms(c)
DAV:   1    -0.229971302004E+04    0.47217E-05   -0.88285E-04  4256   0.274E-02    0.119E-02
RMM:   2    -0.229971303731E+04   -0.17268E-04   -0.16340E-04  2956   0.685E-03    0.178E-02
RMM:   3    -0.229971303661E+04    0.70075E-06   -0.18169E-05  2412   0.441E-03
 208 F= -.23203906E+04 E0= -.23203906E+04  d E =-.145518E-04  mag=     4.0000
       N       E                     dE             d eps       ncg     rms          rms(c)
DAV:   1    -0.229971302874E+04    0.85647E-05   -0.52922E-04  4496   0.212E-02    0.101E-02
RMM:   2    -0.229971303912E+04   -0.10373E-04   -0.99452E-05  2863   0.553E-03    0.146E-02
RMM:   3    -0.229971303858E+04    0.53602E-06   -0.11640E-05  2347   0.364E-03
 209 F= -.23203906E+04 E0= -.23203906E+04  d E =-.183186E-04  mag=     4.0000
       N       E                     dE             d eps       ncg     rms          rms(c)
DAV:   1    -0.229971303502E+04    0.40953E-05   -0.88068E-04  4312   0.295E-02    0.127E-02
RMM:   2    -0.229971304934E+04   -0.14317E-04   -0.13631E-04  2986   0.689E-03    0.173E-02
RMM:   3    -0.229971304863E+04    0.70606E-06   -0.15519E-05  2439   0.441E-03
 210 F= -.23203906E+04 E0= -.23203906E+04  d E =-.122171E-04  mag=     4.0000
