       N       E                     dE             d eps       ncg     rms          rms(c)
DAV:   1     0.128440632667E+05    0.12844E+05   -0.83343E+05  4488   0.144E+03
DAV:   2    -0.105123096707E+04   -0.13895E+05   -0.13286E+05  5112   0.330E+02
DAV:   3    -0.246983186062E+04   -0.14186E+04   -0.14038E+04  5400   0.112E+02
DAV:   4    -0.251391502147E+04   -0.44083E+02   -0.43862E+02  6744   0.294E+01
DAV:   5    -0.251464939140E+04   -0.73437E+00   -0.73295E+00  5768   0.322E+00    0.170E+02
RMM:   6    -0.148530759963E+04    0.10293E+04   -0.19333E+03  4420   0.384E+01    0.724E+01
RMM:   7    -0.166103558908E+04   -0.17573E+03   -0.29749E+02  5075   0.144E+01    0.522E+01
RMM:   8    -0.170626505470E+04   -0.45229E+02   -0.68524E+01  5166   0.790E+00    0.443E+01
RMM:   9    -0.178011977709E+04   -0.73855E+02   -0.71766E+01  5033   0.782E+00    0.361E+01
RMM:  10    -0.188375879076E+04   -0.10364E+03   -0.55396E+01  5231   0.712E+00    0.338E+01
RMM:  11    -0.196000111853E+04   -0.76242E+02   -0.36256E+01  5304   0.522E+00    0.188E+01
RMM:  12    -0.205759790217E+04   -0.97597E+02   -0.42860E+01  4757   0.502E+00    0.153E+01
RMM:  13    -0.213292156652E+04   -0.75324E+02   -0.39535E+01  4824   0.466E+00    0.114E+01
RMM:  14    -0.226109325475E+04   -0.12817E+03   -0.12608E+02  4406   0.763E+00    0.839E+00
RMM:  15    -0.228285975836E+04   -0.21767E+02   -0.19444E+01  4430   0.415E+00    0.605E+00
RMM:  16    -0.229793195956E+04   -0.15072E+02   -0.14396E+01  4413   0.252E+00    0.320E+00
RMM:  17    -0.230435105327E+04   -0.64191E+01   -0.46431E+00  4448   0.194E+00    0.304E+00
RMM:  18    -0.230594703717E+04   -0.15960E+01   -0.14120E+00  5073   0.796E-01    0.385E+00
RMM:  19    -0.230586021663E+04    0.86821E-01   -0.68460E-02  6223   0.177E-01    0.357E+00
RMM:  20    -0.230588863937E+04   -0.28423E-01   -0.16826E-02  5125   0.908E-02    0.342E+00
RMM:  21    -0.230584063151E+04    0.48008E-01   -0.24037E-01  4609   0.262E-01    0.297E+00
RMM:  22    -0.230553625064E+04    0.30438E+00   -0.38707E-01  4565   0.378E-01    0.509E+00
RMM:  23    -0.230624559604E+04   -0.70935E+00   -0.39935E-01  4565   0.298E-01    0.232E+00
RMM:  24    -0.230689189514E+04   -0.64630E+00   -0.22527E-01  4576   0.298E-01    0.255E+00
RMM:  25    -0.230709834782E+04   -0.20645E+00   -0.17804E-01  4680   0.262E-01    0.269E+00
RMM:  26    -0.230715222214E+04   -0.53874E-01   -0.73763E-02  5304   0.150E-01    0.156E+00
RMM:  27    -0.230716040783E+04   -0.81857E-02   -0.10512E-02  5896   0.490E-02    0.149E+00
RMM:  28    -0.230719869610E+04   -0.38288E-01   -0.19453E-02  4419   0.719E-02    0.752E-01
RMM:  29    -0.230722151507E+04   -0.22819E-01   -0.10715E-02  4414   0.723E-02    0.573E-01
RMM:  30    -0.230722564911E+04   -0.41340E-02   -0.94763E-03  5270   0.594E-02    0.160E-01
RMM:  31    -0.230723458770E+04   -0.89386E-02   -0.27432E-03  4538   0.353E-02    0.127E-01
RMM:  32    -0.230724171628E+04   -0.71286E-02   -0.31048E-03  4569   0.371E-02    0.108E-01
RMM:  33    -0.230724670837E+04   -0.49921E-02   -0.13426E-03  4402   0.265E-02    0.574E-02
RMM:  34    -0.230724863138E+04   -0.19230E-02   -0.48605E-04  4329   0.163E-02    0.271E-02
RMM:  35    -0.230724941445E+04   -0.78307E-03   -0.16258E-04  3861   0.859E-03    0.172E-02
RMM:  36    -0.230724981411E+04   -0.39966E-03   -0.64184E-05  3518   0.614E-03    0.222E-02
RMM:  37    -0.230725009023E+04   -0.27612E-03   -0.66491E-05  3480   0.547E-03    0.956E-03
RMM:  38    -0.230725018836E+04   -0.98127E-04   -0.20865E-05  3021   0.438E-03    0.420E-03
RMM:  39    -0.230725021942E+04   -0.31066E-04   -0.10873E-05  2843   0.315E-03    0.376E-03
RMM:  40    -0.230725022575E+04   -0.63270E-05   -0.38262E-06  2443   0.260E-03
   1 F= -.23280307E+04 E0= -.23280307E+04  d E =-.232803E+04  mag=     3.9999
